 Entering Gaussian System, Link 0=g16
 Input=/home/usr6/a72176a/results/10-1021--ja5111392-MA_opt__B3LYP_methanol__2/10-1021--ja5111392-MA_opt_freq_B3LYP_6-31+g_d_p_scrf_solvent_methanol__2.com
 Output=/home/usr6/a72176a/results/10-1021--ja5111392-MA_opt__B3LYP_methanol__2/10-1021--ja5111392-MA_opt_freq_B3LYP_6-31+g_d_p_scrf_solvent_methanol__2.log
 Initial command:
 /home/app/g16/c01/l1.exe "/home/usr6/a72176a/scratch/Gau-218117.inp" -scrdir="/home/usr6/a72176a/scratch/"
 Entering Link 1 = /home/app/g16/c01/l1.exe PID=    218118.
  
 Copyright (c) 1988-2019, Gaussian, Inc.  All Rights Reserved.
  
 This is part of the Gaussian(R) 16 program.  It is based on
 the Gaussian(R) 09 system (copyright 2009, Gaussian, Inc.),
 the Gaussian(R) 03 system (copyright 2003, Gaussian, Inc.),
 the Gaussian(R) 98 system (copyright 1998, Gaussian, Inc.),
 the Gaussian(R) 94 system (copyright 1995, Gaussian, Inc.),
 the Gaussian 92(TM) system (copyright 1992, Gaussian, Inc.),
 the Gaussian 90(TM) system (copyright 1990, Gaussian, Inc.),
 the Gaussian 88(TM) system (copyright 1988, Gaussian, Inc.),
 the Gaussian 86(TM) system (copyright 1986, Carnegie Mellon
 University), and the Gaussian 82(TM) system (copyright 1983,
 Carnegie Mellon University). Gaussian is a federally registered
 trademark of Gaussian, Inc.
  
 This software contains proprietary and confidential information,
 including trade secrets, belonging to Gaussian, Inc.
  
 This software is provided under written license and may be
 used, copied, transmitted, or stored only in accord with that
 written license.
  
 The following legend is applicable only to US Government
 contracts under FAR:
  
                    RESTRICTED RIGHTS LEGEND
  
 Use, reproduction and disclosure by the US Government is
 subject to restrictions as set forth in subparagraphs (a)
 and (c) of the Commercial Computer Software - Restricted
 Rights clause in FAR 52.227-19.
  
 Gaussian, Inc.
 340 Quinnipiac St., Bldg. 40, Wallingford CT 06492
  
  
 ---------------------------------------------------------------
 Warning -- This program may not be used in any manner that
 competes with the business of Gaussian, Inc. or will provide
 assistance to any competitor of Gaussian, Inc.  The licensee
 of this program is prohibited from giving any competitor of
 Gaussian, Inc. access to this program.  By using this program,
 the user acknowledges that Gaussian, Inc. is engaged in the
 business of creating and licensing software in the field of
 computational chemistry and represents and warrants to the
 licensee that it is not a competitor of Gaussian, Inc. and that
 it will not use this program in any manner prohibited above.
 ---------------------------------------------------------------
  

 Cite this work as:
 Gaussian 16, Revision C.01,
 M. J. Frisch, G. W. Trucks, H. B. Schlegel, G. E. Scuseria, 
 M. A. Robb, J. R. Cheeseman, G. Scalmani, V. Barone, 
 G. A. Petersson, H. Nakatsuji, X. Li, M. Caricato, A. V. Marenich, 
 J. Bloino, B. G. Janesko, R. Gomperts, B. Mennucci, H. P. Hratchian, 
 J. V. Ortiz, A. F. Izmaylov, J. L. Sonnenberg, D. Williams-Young, 
 F. Ding, F. Lipparini, F. Egidi, J. Goings, B. Peng, A. Petrone, 
 T. Henderson, D. Ranasinghe, V. G. Zakrzewski, J. Gao, N. Rega, 
 G. Zheng, W. Liang, M. Hada, M. Ehara, K. Toyota, R. Fukuda, 
 J. Hasegawa, M. Ishida, T. Nakajima, Y. Honda, O. Kitao, H. Nakai, 
 T. Vreven, K. Throssell, J. A. Montgomery, Jr., J. E. Peralta, 
 F. Ogliaro, M. J. Bearpark, J. J. Heyd, E. N. Brothers, K. N. Kudin, 
 V. N. Staroverov, T. A. Keith, R. Kobayashi, J. Normand, 
 K. Raghavachari, A. P. Rendell, J. C. Burant, S. S. Iyengar, 
 J. Tomasi, M. Cossi, J. M. Millam, M. Klene, C. Adamo, R. Cammi, 
 J. W. Ochterski, R. L. Martin, K. Morokuma, O. Farkas, 
 J. B. Foresman, and D. J. Fox, Gaussian, Inc., Wallingford CT, 2019.
 
 ******************************************
 Gaussian 16:  ES64L-G16RevC.01  3-Jul-2019
                19-Jan-2024 
 ******************************************
 %nprocshared=36
 Will use up to   36 processors via shared memory.
 %mem=144GB
 %chk=/home/usr6/a72176a/results/10-1021--ja5111392-MA_opt__B3LYP_methanol__2/10-
 1021--ja5111392-MA_opt_freq_B3LYP_6-31+g_d_p_scrf_solvent_methanol__2.chk
 ----------------------------------------------------
 # opt freq B3LYP/6-31+g(d,p) scrf=(solvent=methanol)
 ----------------------------------------------------
 1/18=20,19=15,26=3,38=1/1,3;
 2/9=110,12=2,17=6,18=5,40=1/2;
 3/5=1,6=6,7=111,11=2,25=1,30=1,70=2201,71=1,72=3,74=-5/1,2,3;
 4//1;
 5/5=2,38=5,53=3/2;
 6/7=2,8=2,9=2,10=2,28=1/1;
 7//1,2,3,16;
 1/18=20,19=15,26=3/3(2);
 2/9=110/2;
 99//99;
 2/9=110/2;
 3/5=1,6=6,7=111,11=2,25=1,30=1,70=2205,71=1,72=3,74=-5/1,2,3;
 4/5=5,16=3,69=1/1;
 5/5=2,38=5,53=3/2;
 7//1,2,3,16;
 1/18=20,19=15,26=3/3(-5);
 2/9=110/2;
 6/7=2,8=2,9=2,10=2,19=2,28=1/1;
 99/9=1/99;
 -------------------
 Title Card Required
 -------------------
 Symbolic Z-matrix:
 Charge =  0 Multiplicity = 1
 C                    -1.35613   1.6289    0.37325 
 O                    -0.38304   1.4739    1.15597 
 O                    -1.6616    2.92853  -0.13915 
 C                    -3.06763   3.02741  -0.38042 
 H                    -3.59851   2.87126   0.53537 
 H                    -3.29619   3.99986  -0.76383 
 H                    -3.36024   2.28511  -1.09334 
 C                    -2.21801   0.41899  -0.03279 
 H                    -1.98945  -0.55346   0.35062 
 C                    -3.26596   0.58592  -0.87571 
 H                    -3.8648   -0.25474  -1.15784 
 H                    -3.49452   1.55836  -1.25912 
 

 GradGradGradGradGradGradGradGradGradGradGradGradGradGradGradGradGradGrad
 Berny optimization.
 Initialization pass.
                           ----------------------------
                           !    Initial Parameters    !
                           ! (Angstroms and Degrees)  !
 --------------------------                            --------------------------
 ! Name  Definition              Value          Derivative Info.                !
 --------------------------------------------------------------------------------
 ! R1    R(1,2)                  1.2584         estimate D2E/DX2                !
 ! R2    R(1,3)                  1.43           estimate D2E/DX2                !
 ! R3    R(1,8)                  1.54           estimate D2E/DX2                !
 ! R4    R(3,4)                  1.43           estimate D2E/DX2                !
 ! R5    R(4,5)                  1.07           estimate D2E/DX2                !
 ! R6    R(4,6)                  1.07           estimate D2E/DX2                !
 ! R7    R(4,7)                  1.07           estimate D2E/DX2                !
 ! R8    R(7,12)                 0.7574         estimate D2E/DX2                !
 ! R9    R(8,9)                  1.07           estimate D2E/DX2                !
 ! R10   R(8,10)                 1.3552         estimate D2E/DX2                !
 ! R11   R(10,11)                1.07           estimate D2E/DX2                !
 ! R12   R(10,12)                1.07           estimate D2E/DX2                !
 ! A1    A(2,1,3)              120.0            estimate D2E/DX2                !
 ! A2    A(2,1,8)              120.0            estimate D2E/DX2                !
 ! A3    A(3,1,8)              120.0            estimate D2E/DX2                !
 ! A4    A(1,3,4)              109.4712         estimate D2E/DX2                !
 ! A5    A(3,4,5)              109.4712         estimate D2E/DX2                !
 ! A6    A(3,4,6)              109.4712         estimate D2E/DX2                !
 ! A7    A(3,4,7)              109.4712         estimate D2E/DX2                !
 ! A8    A(5,4,6)              109.4712         estimate D2E/DX2                !
 ! A9    A(5,4,7)              109.4712         estimate D2E/DX2                !
 ! A10   A(6,4,7)              109.4712         estimate D2E/DX2                !
 ! A11   A(4,7,12)             149.3134         estimate D2E/DX2                !
 ! A12   A(1,8,9)              120.0            estimate D2E/DX2                !
 ! A13   A(1,8,10)             120.0            estimate D2E/DX2                !
 ! A14   A(9,8,10)             120.0            estimate D2E/DX2                !
 ! A15   A(8,10,11)            120.0            estimate D2E/DX2                !
 ! A16   A(8,10,12)            120.0            estimate D2E/DX2                !
 ! A17   A(11,10,12)           120.0            estimate D2E/DX2                !
 ! A18   A(7,12,10)            139.0895         estimate D2E/DX2                !
 ! D1    D(2,1,3,4)           -150.0            estimate D2E/DX2                !
 ! D2    D(8,1,3,4)             30.0            estimate D2E/DX2                !
 ! D3    D(2,1,8,9)              0.0002         estimate D2E/DX2                !
 ! D4    D(2,1,8,10)          -180.0            estimate D2E/DX2                !
 ! D5    D(3,1,8,9)           -179.9998         estimate D2E/DX2                !
 ! D6    D(3,1,8,10)             0.0            estimate D2E/DX2                !
 ! D7    D(1,3,4,5)             60.0            estimate D2E/DX2                !
 ! D8    D(1,3,4,6)            180.0            estimate D2E/DX2                !
 ! D9    D(1,3,4,7)            -60.0            estimate D2E/DX2                !
 ! D10   D(3,4,7,12)            72.8651         estimate D2E/DX2                !
 ! D11   D(5,4,7,12)           -47.1349         estimate D2E/DX2                !
 ! D12   D(6,4,7,12)          -167.1349         estimate D2E/DX2                !
 ! D13   D(4,7,12,10)          -18.696          estimate D2E/DX2                !
 ! D14   D(1,8,10,11)          180.0            estimate D2E/DX2                !
 ! D15   D(1,8,10,12)            0.0001         estimate D2E/DX2                !
 ! D16   D(9,8,10,11)           -0.0002         estimate D2E/DX2                !
 ! D17   D(9,8,10,12)         -180.0            estimate D2E/DX2                !
 ! D18   D(8,10,12,7)          -20.008          estimate D2E/DX2                !
 ! D19   D(11,10,12,7)         159.9921         estimate D2E/DX2                !
 --------------------------------------------------------------------------------
 Trust Radius=3.00D-01 FncErr=1.00D-07 GrdErr=1.00D-06 EigMax=2.50D+02 EigMin=1.00D-04
 Number of steps in this run=     59 maximum allowed number of steps=    100.
 GradGradGradGradGradGradGradGradGradGradGradGradGradGradGradGradGradGrad

                          Input orientation:                          
 ---------------------------------------------------------------------
 Center     Atomic      Atomic             Coordinates (Angstroms)
 Number     Number       Type             X           Y           Z
 ---------------------------------------------------------------------
      1          6           0       -1.356133    1.628902    0.373254
      2          8           0       -0.383042    1.473901    1.155967
      3          8           0       -1.661600    2.928530   -0.139149
      4          6           0       -3.067626    3.027412   -0.380422
      5          1           0       -3.598506    2.871258    0.535374
      6          1           0       -3.296192    3.999861   -0.763829
      7          1           0       -3.360242    2.285107   -1.093344
      8          6           0       -2.218014    0.418990   -0.032792
      9          1           0       -1.989450   -0.553458    0.350617
     10          6           0       -3.265958    0.585915   -0.875714
     11          1           0       -3.864798   -0.254738   -1.157837
     12          1           0       -3.494522    1.558364   -1.259123
 ---------------------------------------------------------------------
                    Distance matrix (angstroms):
                    1          2          3          4          5
     1  C    0.000000
     2  O    1.258400   0.000000
     3  O    1.430000   2.329803   0.000000
     4  C    2.335180   3.461341   1.430000   0.000000
     5  H    2.568651   3.560471   2.051796   1.070000   0.000000
     6  H    3.267757   4.307265   2.051796   1.070000   1.747303
     7  H    2.568651   3.818530   2.051796   1.070000   1.747303
     8  C    1.540000   2.427572   2.572683   2.765240   2.870921
     9  H    2.272510   2.709118   3.531515   3.810448   3.788387
    10  C    2.509019   3.636956   2.933315   2.499112   2.706390
    11  H    3.490808   4.523771   4.003124   3.465886   3.565070
    12  H    2.691159   3.939683   2.547804   1.764216   2.225920
                    6          7          8          9         10
     6  H    0.000000
     7  H    1.747303   0.000000
     8  C    3.810449   2.431428   0.000000
     9  H    4.866444   3.467210   1.070000   0.000000
    10  C    3.415913   1.715664   1.355200   2.105120   0.000000
    11  H    4.310472   2.590279   2.105120   2.425200   1.070000
    12  H    2.499112   0.757410   2.105120   3.052261   1.070000
                   11         12
    11  H    0.000000
    12  H    1.853294   0.000000
 Stoichiometry    C4H6O2
 Framework group  C1[X(C4H6O2)]
 Deg. of freedom    30
 Full point group                 C1      NOp   1
 Largest Abelian subgroup         C1      NOp   1
 Largest concise Abelian subgroup C1      NOp   1
                         Standard orientation:                         
 ---------------------------------------------------------------------
 Center     Atomic      Atomic             Coordinates (Angstroms)
 Number     Number       Type             X           Y           Z
 ---------------------------------------------------------------------
      1          6           0       -0.817105    0.072521   -0.049215
      2          8           0       -2.059837    0.202497    0.100098
      3          8           0       -0.259368   -1.218240   -0.309533
      4          6           0        1.063785   -1.283189    0.228935
      5          1           0        1.027530   -1.116757    1.285290
      6          1           0        1.481113   -2.249003    0.034151
      7          1           0        1.672763   -0.532406   -0.229727
      8          6           0        0.103080    1.303508    0.048402
      9          1           0       -0.314248    2.269322    0.243188
     10          6           0        1.441406    1.163533   -0.112398
     11          1           0        2.080755    2.018830   -0.044573
     12          1           0        1.858734    0.197720   -0.307184
 ---------------------------------------------------------------------
 Rotational constants (GHZ):           4.9961275           3.7888119           2.2384400
 Standard basis: 6-31+G(d,p) (6D, 7F)
 There are   144 symmetry adapted cartesian basis functions of A   symmetry.
 There are   144 symmetry adapted basis functions of A   symmetry.
   144 basis functions,   234 primitive gaussians,   144 cartesian basis functions
    23 alpha electrons       23 beta electrons
       nuclear repulsion energy       230.8332921833 Hartrees.
 NAtoms=   12 NActive=   12 NUniq=   12 SFac= 1.00D+00 NAtFMM=   60 NAOKFM=F Big=F
 Integral buffers will be    131072 words long.
 Raffenetti 2 integral format.
 Two-electron integral symmetry is turned on.
 ------------------------------------------------------------------------------
 Polarizable Continuum Model (PCM)
 =================================
 Model                : PCM.
 Atomic radii         : UFF (Universal Force Field).
 Polarization charges : Total charges.
 Charge compensation  : None.
 Solution method      : On-the-fly selection.
 Cavity type          : Scaled VdW (van der Waals Surface) (Alpha=1.100).
 Cavity algorithm     : GePol (No added spheres)
                        Default sphere list used, NSphG=   12.
                        Lebedev-Laikov grids with approx.  5.0 points / Ang**2.
                        Smoothing algorithm: York/Karplus (Gamma=1.0000).
                        Polarization charges: spherical gaussians, with
                                              point-specific exponents (IZeta= 3).
                        Self-potential: point-specific (ISelfS= 7).
                        Self-field    : sphere-specific E.n sum rule (ISelfD= 2).
 1st derivatives      : Analytical E(r).r(x)/FMM algorithm (CHGder, D1EAlg=3).
                        Cavity 1st derivative terms included.
 Solvent              : Methanol, Eps=  32.613000 Eps(inf)=   1.765709
 ------------------------------------------------------------------------------
 Spheres list:
 ISph  on   Nord     Re0    Alpha      Xe            Ye            Ze
    1   C      1    1.9255  1.100     -0.817105      0.072521     -0.049215
    2   O      2    1.7500  1.100     -2.059837      0.202497      0.100098
    3   O      3    1.7500  1.100     -0.259368     -1.218240     -0.309533
    4   C      4    1.9255  1.100      1.063785     -1.283189      0.228935
    5   H      5    1.4430  1.100      1.027530     -1.116757      1.285290
    6   H      6    1.4430  1.100      1.481113     -2.249003      0.034151
    7   H      7    1.4430  1.100      1.672763     -0.532406     -0.229727
    8   C      8    1.9255  1.100      0.103080      1.303508      0.048402
    9   H      9    1.4430  1.100     -0.314248      2.269322      0.243188
   10   C     10    1.9255  1.100      1.441406      1.163533     -0.112398
   11   H     11    1.4430  1.100      2.080755      2.018830     -0.044573
   12   H     12    1.4430  1.100      1.858734      0.197720     -0.307184
 ------------------------------------------------------------------------------
 One-electron integrals computed using PRISM.
 NBasis=   144 RedAO= T EigKep=  5.92D-05  NBF=   144
 NBsUse=   144 1.00D-06 EigRej= -1.00D+00 NBFU=   144
 ExpMin= 4.38D-02 ExpMax= 5.48D+03 ExpMxC= 8.25D+02 IAcc=3 IRadAn=         5 AccDes= 0.00D+00
 Harris functional with IExCor=  402 and IRadAn=       5 diagonalized for initial guess.
 HarFok:  IExCor=  402 AccDes= 0.00D+00 IRadAn=         5 IDoV= 1 UseB2=F ITyADJ=14
 ICtDFT=  3500011 ScaDFX=  1.000000  1.000000  1.000000  1.000000
 FoFCou: FMM=F IPFlag=           0 FMFlag=      100000 FMFlg1=           0
         NFxFlg=           0 DoJE=T BraDBF=F KetDBF=T FulRan=T
         wScrn=  0.000000 ICntrl=       500 IOpCl=  0 I1Cent=   200000004 NGrid=           0
         NMat0=    1 NMatS0=      1 NMatT0=    0 NMatD0=    1 NMtDS0=    0 NMtDT0=    0
 Petite list used in FoFCou.
 Keep R1 ints in memory in canonical form, NReq=89500420.
 Requested convergence on RMS density matrix=1.00D-08 within 128 cycles.
 Requested convergence on MAX density matrix=1.00D-06.
 Requested convergence on             energy=1.00D-06.
 No special actions if energy rises.
 Inv3:  Mode=1 IEnd=     3525168.
 Iteration    1 A*A^-1 deviation from unit magnitude is 2.89D-15 for    377.
 Iteration    1 A*A^-1 deviation from orthogonality  is 2.73D-15 for    754    224.
 Iteration    1 A^-1*A deviation from unit magnitude is 2.89D-15 for    119.
 Iteration    1 A^-1*A deviation from orthogonality  is 2.16D-15 for    691    112.
 Error on total polarization charges =  0.01178
 SCF Done:  E(RB3LYP) =  -306.348673522     A.U. after   13 cycles
            NFock= 13  Conv=0.42D-08     -V/T= 2.0083

 **********************************************************************

            Population analysis using the SCF Density.

 **********************************************************************

 Orbital symmetries:
       Occupied  (A) (A) (A) (A) (A) (A) (A) (A) (A) (A) (A) (A)
                 (A) (A) (A) (A) (A) (A) (A) (A) (A) (A) (A)
       Virtual   (A) (A) (A) (A) (A) (A) (A) (A) (A) (A) (A) (A)
                 (A) (A) (A) (A) (A) (A) (A) (A) (A) (A) (A) (A)
                 (A) (A) (A) (A) (A) (A) (A) (A) (A) (A) (A) (A)
                 (A) (A) (A) (A) (A) (A) (A) (A) (A) (A) (A) (A)
                 (A) (A) (A) (A) (A) (A) (A) (A) (A) (A) (A) (A)
                 (A) (A) (A) (A) (A) (A) (A) (A) (A) (A) (A) (A)
                 (A) (A) (A) (A) (A) (A) (A) (A) (A) (A) (A) (A)
                 (A) (A) (A) (A) (A) (A) (A) (A) (A) (A) (A) (A)
                 (A) (A) (A) (A) (A) (A) (A) (A) (A) (A) (A) (A)
                 (A) (A) (A) (A) (A) (A) (A) (A) (A) (A) (A) (A)
                 (A)
 The electronic state is 1-A.
 Alpha  occ. eigenvalues --  -19.21671 -19.17246 -10.35495 -10.23434 -10.22851
 Alpha  occ. eigenvalues --  -10.21171  -1.09812  -1.02872  -0.82618  -0.75100
 Alpha  occ. eigenvalues --   -0.64693  -0.62414  -0.53070  -0.49760  -0.48618
 Alpha  occ. eigenvalues --   -0.46360  -0.44229  -0.41530  -0.40574  -0.34949
 Alpha  occ. eigenvalues --   -0.30294  -0.29957  -0.28049
 Alpha virt. eigenvalues --   -0.08039   0.00953   0.01695   0.02532   0.02955
 Alpha virt. eigenvalues --    0.04800   0.05069   0.06316   0.07304   0.08172
 Alpha virt. eigenvalues --    0.09095   0.09743   0.11111   0.11342   0.13397
 Alpha virt. eigenvalues --    0.14101   0.14458   0.15762   0.17442   0.18533
 Alpha virt. eigenvalues --    0.19467   0.21483   0.23175   0.24084   0.25082
 Alpha virt. eigenvalues --    0.26893   0.27796   0.29166   0.29792   0.31015
 Alpha virt. eigenvalues --    0.32050   0.32546   0.33894   0.34979   0.39723
 Alpha virt. eigenvalues --    0.42453   0.52199   0.61915   0.62323   0.64202
 Alpha virt. eigenvalues --    0.67089   0.67876   0.70001   0.71847   0.76382
 Alpha virt. eigenvalues --    0.78463   0.82631   0.86215   0.90645   0.96360
 Alpha virt. eigenvalues --    0.98633   1.00219   1.01802   1.03841   1.09441
 Alpha virt. eigenvalues --    1.14999   1.16683   1.19857   1.21439   1.24720
 Alpha virt. eigenvalues --    1.27303   1.29260   1.30988   1.31582   1.36279
 Alpha virt. eigenvalues --    1.36420   1.39620   1.42488   1.46458   1.52515
 Alpha virt. eigenvalues --    1.54700   1.66759   1.70257   1.74022   1.77107
 Alpha virt. eigenvalues --    1.79631   1.84732   1.88364   1.90953   1.92510
 Alpha virt. eigenvalues --    1.94123   1.99407   1.99859   2.03636   2.05460
 Alpha virt. eigenvalues --    2.15138   2.16634   2.20037   2.28063   2.30529
 Alpha virt. eigenvalues --    2.38816   2.40266   2.42429   2.46524   2.49854
 Alpha virt. eigenvalues --    2.52264   2.56632   2.62899   2.65201   2.67700
 Alpha virt. eigenvalues --    2.71891   2.77931   2.83798   2.89327   2.98250
 Alpha virt. eigenvalues --    3.08294   3.11775   3.18482   3.28853   3.33629
 Alpha virt. eigenvalues --    3.47466   3.51303   3.61339   3.72473   4.13076
 Alpha virt. eigenvalues --    4.28502   4.35874   4.44721   4.56100   4.62472
 Alpha virt. eigenvalues --    4.93248
          Condensed to atoms (all electrons):
               1          2          3          4          5          6
     1  C    4.947929   0.438823   0.244051  -0.087677  -0.024406   0.015043
     2  O    0.438823   8.316523  -0.092628   0.013779   0.002717  -0.000579
     3  O    0.244051  -0.092628   8.436348   0.004399  -0.035863  -0.040314
     4  C   -0.087677   0.013779   0.004399   5.318079   0.412559   0.385922
     5  H   -0.024406   0.002717  -0.035863   0.412559   0.524265  -0.027906
     6  H    0.015043  -0.000579  -0.040314   0.385922  -0.027906   0.525128
     7  H   -0.016418  -0.001923  -0.060775   0.501803  -0.054953  -0.029884
     8  C    0.061055  -0.165884  -0.220124   0.152577  -0.007637  -0.015896
     9  H   -0.009149  -0.007172   0.005550  -0.008240   0.000139   0.000011
    10  C    0.145477   0.014444   0.105889  -0.326397   0.026158   0.020568
    11  H   -0.004304  -0.000566  -0.001014   0.016679  -0.000120  -0.000133
    12  H   -0.000783   0.000302   0.016354  -0.159733   0.003669   0.005536
               7          8          9         10         11         12
     1  C   -0.016418   0.061055  -0.009149   0.145477  -0.004304  -0.000783
     2  O   -0.001923  -0.165884  -0.007172   0.014444  -0.000566   0.000302
     3  O   -0.060775  -0.220124   0.005550   0.105889  -0.001014   0.016354
     4  C    0.501803   0.152577  -0.008240  -0.326397   0.016679  -0.159733
     5  H   -0.054953  -0.007637   0.000139   0.026158  -0.000120   0.003669
     6  H   -0.029884  -0.015896   0.000011   0.020568  -0.000133   0.005536
     7  H    0.723461   0.070623  -0.000985  -0.248452   0.006963  -0.027039
     8  C    0.070623   5.569631   0.340336   0.191027   0.017690  -0.093453
     9  H   -0.000985   0.340336   0.503674   0.001220  -0.006206   0.005229
    10  C   -0.248452   0.191027   0.001220   5.496877   0.325957   0.516925
    11  H    0.006963   0.017690  -0.006206   0.325957   0.510783  -0.031472
    12  H   -0.027039  -0.093453   0.005229   0.516925  -0.031472   0.604522
 Mulliken charges:
               1
     1  C    0.290359
     2  O   -0.517836
     3  O   -0.361874
     4  C   -0.223752
     5  H    0.181379
     6  H    0.162502
     7  H    0.137578
     8  C    0.100055
     9  H    0.175593
    10  C   -0.269692
    11  H    0.165744
    12  H    0.159944
 Sum of Mulliken charges =  -0.00000
 Mulliken charges with hydrogens summed into heavy atoms:
               1
     1  C    0.290359
     2  O   -0.517836
     3  O   -0.361874
     4  C    0.257707
     8  C    0.275648
    10  C    0.055996
 Electronic spatial extent (au):  <R**2>=            551.0374
 Charge=              0.0000 electrons
 Dipole moment (field-independent basis, Debye):
    X=              6.4861    Y=              1.2457    Z=              0.5756  Tot=              6.6297
 Quadrupole moment (field-independent basis, Debye-Ang):
   XX=            -40.7754   YY=            -33.6699   ZZ=            -36.7901
   XY=             -1.3307   XZ=              0.2001   YZ=             -0.7773
 Traceless Quadrupole moment (field-independent basis, Debye-Ang):
   XX=             -3.6969   YY=              3.4085   ZZ=              0.2883
   XY=             -1.3307   XZ=              0.2001   YZ=             -0.7773
 Octapole moment (field-independent basis, Debye-Ang**2):
  XXX=             28.2503  YYY=              4.0466  ZZZ=              0.6719  XYY=              6.1641
  XXY=             -2.3878  XXZ=             -2.1588  XZZ=             -1.7034  YZZ=             -3.3491
  YYZ=              2.4218  XYZ=              0.2021
 Hexadecapole moment (field-independent basis, Debye-Ang**3):
 XXXX=           -397.5480 YYYY=           -273.3656 ZZZZ=            -51.8122 XXXY=              5.2641
 XXXZ=              0.2791 YYYX=             -6.4696 YYYZ=              4.0529 ZZZX=              0.2609
 ZZZY=              0.0166 XXYY=           -102.7140 XXZZ=            -70.3992 YYZZ=            -62.5611
 XXYZ=             -0.0876 YYXZ=             -0.6073 ZZXY=             -2.7353
 N-N= 2.308332921833D+02 E-N=-1.176598665771D+03  KE= 3.038293446990D+02
 D1PCM: PCM CHGder 1st derivatives, ID1Alg=3 FixD1E=F DoIter=F DoCFld=F I1PDM=0.
 Calling FoFJK, ICntrl=      2127 FMM=F ISym2X=0 I1Cent= 0 IOpClX= 0 NMat=1 NMatS=1 NMatT=0.
 ***** Axes restored to original set *****
 -------------------------------------------------------------------
 Center     Atomic                   Forces (Hartrees/Bohr)
 Number     Number              X              Y              Z
 -------------------------------------------------------------------
      1        6           0.032096175   -0.010196008    0.024953860
      2        8          -0.042699303    0.015226276   -0.041771908
      3        8           0.012230745   -0.050602603    0.020593861
      4        6           0.005915465    0.062709961    0.005395490
      5        1          -0.011346720   -0.003325117    0.011901441
      6        1           0.003774952    0.018219606   -0.001348602
      7        1           0.021485642    0.160592358    0.025984787
      8        6          -0.009255358    0.048775426   -0.017140904
      9        1           0.008342906   -0.004827603    0.009960894
     10        6           0.016271083   -0.072519675    0.005713503
     11        1          -0.005512722   -0.012876889   -0.003079338
     12        1          -0.031302864   -0.151175731   -0.041163084
 -------------------------------------------------------------------
 Cartesian Forces:  Max     0.160592358 RMS     0.045486616

 GradGradGradGradGradGradGradGradGradGradGradGradGradGradGradGradGradGrad
 Berny optimization.
 FormGI is forming the generalized inverse of G from B-inverse, IUseBI=4.
 Internal  Forces:  Max     0.207341523 RMS     0.035654649
 Search for a local minimum.
 Step number   1 out of a maximum of   59
 All quantities printed in internal units (Hartrees-Bohrs-Radians)
 Mixed Optimization -- RFO/linear search
 Second derivative matrix not updated -- first step.
 ITU=  0
     Eigenvalues ---    0.00395   0.00571   0.00705   0.01370   0.01606
     Eigenvalues ---    0.01954   0.02157   0.07592   0.09492   0.11614
     Eigenvalues ---    0.11892   0.14331   0.16000   0.16000   0.16061
     Eigenvalues ---    0.18185   0.23025   0.25000   0.27982   0.34521
     Eigenvalues ---    0.36272   0.37011   0.37230   0.37230   0.37230
     Eigenvalues ---    0.37230   0.39418   0.40361   0.52341   0.80209
 RFO step:  Lambda=-1.32722350D-01 EMin= 3.94983773D-03
 Linear search not attempted -- first point.
 Maximum step size (   0.300) exceeded in Quadratic search.
    -- Step size scaled by   0.573
 Iteration  1 RMS(Cart)=  0.06881783 RMS(Int)=  0.00641348
 Iteration  2 RMS(Cart)=  0.00750513 RMS(Int)=  0.00049938
 Iteration  3 RMS(Cart)=  0.00001194 RMS(Int)=  0.00049930
 Iteration  4 RMS(Cart)=  0.00000000 RMS(Int)=  0.00049930
 Variable       Old X    -DE/DX   Delta X   Delta X   Delta X     New X
                                 (Linear)    (Quad)   (Total)
    R1        2.37803  -0.06088   0.00000  -0.03731  -0.03731   2.34072
    R2        2.70231  -0.02397   0.00000  -0.02971  -0.02931   2.67300
    R3        2.91018  -0.00850   0.00000  -0.02065  -0.02067   2.88950
    R4        2.70231   0.00820   0.00000   0.00977   0.01003   2.71234
    R5        2.02201   0.01630   0.00000   0.01850   0.01850   2.04050
    R6        2.02201   0.01624   0.00000   0.01842   0.01842   2.04043
    R7        2.02201   0.03809   0.00000   0.05162   0.05180   2.07381
    R8        1.43130   0.20734   0.00000   0.24510   0.24500   1.67630
    R9        2.02201   0.00974   0.00000   0.01105   0.01105   2.03306
   R10        2.56096  -0.00797   0.00000  -0.00885  -0.00927   2.55169
   R11        2.02201   0.01401   0.00000   0.01590   0.01590   2.03791
   R12        2.02201   0.04925   0.00000   0.06060   0.06020   2.08220
    A1        2.09440  -0.02529   0.00000  -0.03210  -0.03246   2.06194
    A2        2.09440  -0.00472   0.00000  -0.00131  -0.00165   2.09275
    A3        2.09440   0.03001   0.00000   0.03341   0.03395   2.12834
    A4        1.91063   0.03202   0.00000   0.05645   0.05729   1.96792
    A5        1.91063   0.00538   0.00000   0.00915   0.00850   1.91913
    A6        1.91063   0.01045   0.00000   0.01140   0.01190   1.92253
    A7        1.91063  -0.03985   0.00000  -0.06599  -0.06624   1.84440
    A8        1.91063  -0.00075   0.00000   0.00420   0.00391   1.91455
    A9        1.91063   0.00080   0.00000  -0.00472  -0.00474   1.90589
   A10        1.91063   0.02397   0.00000   0.04596   0.04556   1.95619
   A11        2.60601  -0.01090   0.00000   0.00063   0.00168   2.60769
   A12        2.09440  -0.02578   0.00000  -0.04048  -0.04031   2.05409
   A13        2.09440   0.03200   0.00000   0.04269   0.04235   2.13674
   A14        2.09440  -0.00623   0.00000  -0.00221  -0.00204   2.09236
   A15        2.09440   0.01260   0.00000   0.01991   0.02028   2.11468
   A16        2.09440  -0.03084   0.00000  -0.05087  -0.05162   2.04277
   A17        2.09440   0.01824   0.00000   0.03096   0.03133   2.12572
   A18        2.42757  -0.00797   0.00000   0.01009   0.00980   2.43737
    D1       -2.61799   0.00972   0.00000   0.00478   0.00412  -2.61387
    D2        0.52360   0.01180   0.00000   0.02440   0.02311   0.54671
    D3        0.00000   0.00850   0.00000   0.02051   0.02036   0.02037
    D4       -3.14159   0.01028   0.00000   0.02304   0.02253  -3.11906
    D5       -3.14159   0.00642   0.00000   0.00088   0.00105  -3.14054
    D6        0.00000   0.00820   0.00000   0.00341   0.00322   0.00322
    D7        1.04720  -0.00515   0.00000  -0.00185  -0.00229   1.04491
    D8        3.14159   0.00362   0.00000   0.01588   0.01536  -3.12623
    D9       -1.04720   0.01498   0.00000   0.03874   0.03733  -1.00986
   D10        1.27174  -0.01964   0.00000  -0.04420  -0.04339   1.22835
   D11       -0.82266  -0.00231   0.00000  -0.01210  -0.01262  -0.83528
   D12       -2.91705  -0.01656   0.00000  -0.04250  -0.04337  -2.96042
   D13       -0.32631  -0.01469   0.00000  -0.03080  -0.03075  -0.35706
   D14        3.14159   0.00237   0.00000   0.00301   0.00335  -3.13824
   D15        0.00000   0.00555   0.00000  -0.00224  -0.00195  -0.00194
   D16       -0.00000   0.00416   0.00000   0.00553   0.00557   0.00557
   D17       -3.14159   0.00733   0.00000   0.00029   0.00027  -3.14132
   D18       -0.34921   0.00552   0.00000   0.02415   0.02462  -0.32459
   D19        2.79239   0.00870   0.00000   0.01890   0.01928   2.81167
         Item               Value     Threshold  Converged?
 Maximum Force            0.207342     0.000450     NO 
 RMS     Force            0.035655     0.000300     NO 
 Maximum Displacement     0.236835     0.001800     NO 
 RMS     Displacement     0.075463     0.001200     NO 
 Predicted change in Energy=-6.081626D-02
 GradGradGradGradGradGradGradGradGradGradGradGradGradGradGradGradGradGrad

                          Input orientation:                          
 ---------------------------------------------------------------------
 Center     Atomic      Atomic             Coordinates (Angstroms)
 Number     Number       Type             X           Y           Z
 ---------------------------------------------------------------------
      1          6           0       -1.384839    1.610478    0.363123
      2          8           0       -0.414760    1.466925    1.119829
      3          8           0       -1.671257    2.910503   -0.115082
      4          6           0       -3.070243    3.115507   -0.361899
      5          1           0       -3.630363    2.971419    0.549938
      6          1           0       -3.239201    4.113064   -0.738976
      7          1           0       -3.359133    2.345422   -1.088416
      8          6           0       -2.218101    0.395772   -0.046984
      9          1           0       -1.940125   -0.561153    0.358566
     10          6           0       -3.269706    0.489920   -0.888745
     11          1           0       -3.845413   -0.380066   -1.161990
     12          1           0       -3.512943    1.492255   -1.276360
 ---------------------------------------------------------------------
                    Distance matrix (angstroms):
                    1          2          3          4          5
     1  C    0.000000
     2  O    1.238655   0.000000
     3  O    1.414489   2.277654   0.000000
     4  C    2.373048   3.459036   1.435308   0.000000
     5  H    2.632382   3.595605   2.069797   1.079788   0.000000
     6  H    3.303970   4.293562   2.072160   1.079747   1.765690
     7  H    2.558309   3.783839   2.028700   1.097413   1.774723
     8  C    1.529059   2.400179   2.574402   2.867451   2.997458
     9  H    2.241505   2.649408   3.514118   3.913318   3.920789
    10  C    2.524984   3.624862   3.002135   2.685341   2.890972
    11  H    3.513211   4.515246   4.080540   3.668795   3.769534
    12  H    2.688997   3.916772   2.598423   1.914985   2.353099
                    6          7          8          9         10
     6  H    0.000000
     7  H    1.805839   0.000000
     8  C    3.916600   2.487502   0.000000
     9  H    4.973982   3.543376   1.075847   0.000000
    10  C    3.626367   1.868355   1.350295   2.104358   0.000000
    11  H    4.553532   2.769506   2.119742   2.444381   1.078414
    12  H    2.689304   0.887059   2.095293   3.059938   1.101855
                   11         12
    11  H    0.000000
    12  H    1.905046   0.000000
 Stoichiometry    C4H6O2
 Framework group  C1[X(C4H6O2)]
 Deg. of freedom    30
 Full point group                 C1      NOp   1
 Largest Abelian subgroup         C1      NOp   1
 Largest concise Abelian subgroup C1      NOp   1
                         Standard orientation:                         
 ---------------------------------------------------------------------
 Center     Atomic      Atomic             Coordinates (Angstroms)
 Number     Number       Type             X           Y           Z
 ---------------------------------------------------------------------
      1          6           0       -0.795217    0.108991   -0.040950
      2          8           0       -2.016583    0.265170    0.093732
      3          8           0       -0.314708   -1.194423   -0.307414
      4          6           0        1.002612   -1.418364    0.216634
      5          1           0        1.001089   -1.282753    1.287871
      6          1           0        1.333431   -2.417817   -0.023174
      7          1           0        1.638992   -0.651682   -0.243296
      8          6           0        0.142733    1.312519    0.058016
      9          1           0       -0.296232    2.272812    0.264397
     10          6           0        1.478716    1.204697   -0.105751
     11          1           0        2.121785    2.066948   -0.028537
     12          1           0        1.878197    0.199459   -0.315502
 ---------------------------------------------------------------------
 Rotational constants (GHZ):           4.6772340           3.8823630           2.2007808
 Standard basis: 6-31+G(d,p) (6D, 7F)
 There are   144 symmetry adapted cartesian basis functions of A   symmetry.
 There are   144 symmetry adapted basis functions of A   symmetry.
   144 basis functions,   234 primitive gaussians,   144 cartesian basis functions
    23 alpha electrons       23 beta electrons
       nuclear repulsion energy       229.6648917359 Hartrees.
 NAtoms=   12 NActive=   12 NUniq=   12 SFac= 1.00D+00 NAtFMM=   60 NAOKFM=F Big=F
 Integral buffers will be    131072 words long.
 Raffenetti 2 integral format.
 Two-electron integral symmetry is turned on.
 ------------------------------------------------------------------------------
 Polarizable Continuum Model (PCM)
 =================================
 Model                : PCM.
 Atomic radii         : UFF (Universal Force Field).
 Polarization charges : Total charges.
 Charge compensation  : None.
 Solution method      : On-the-fly selection.
 Cavity type          : Scaled VdW (van der Waals Surface) (Alpha=1.100).
 Cavity algorithm     : GePol (No added spheres)
                        Default sphere list used, NSphG=   12.
                        Lebedev-Laikov grids with approx.  5.0 points / Ang**2.
                        Smoothing algorithm: York/Karplus (Gamma=1.0000).
                        Polarization charges: spherical gaussians, with
                                              point-specific exponents (IZeta= 3).
                        Self-potential: point-specific (ISelfS= 7).
                        Self-field    : sphere-specific E.n sum rule (ISelfD= 2).
 1st derivatives      : Analytical E(r).r(x)/FMM algorithm (CHGder, D1EAlg=3).
                        Cavity 1st derivative terms included.
 Solvent              : Methanol, Eps=  32.613000 Eps(inf)=   1.765709
 ------------------------------------------------------------------------------
 Spheres list:
 ISph  on   Nord     Re0    Alpha      Xe            Ye            Ze
    1   C      1    1.9255  1.100     -0.795217      0.108991     -0.040950
    2   O      2    1.7500  1.100     -2.016583      0.265170      0.093732
    3   O      3    1.7500  1.100     -0.314708     -1.194423     -0.307414
    4   C      4    1.9255  1.100      1.002612     -1.418364      0.216634
    5   H      5    1.4430  1.100      1.001089     -1.282753      1.287871
    6   H      6    1.4430  1.100      1.333431     -2.417817     -0.023174
    7   H      7    1.4430  1.100      1.638992     -0.651682     -0.243296
    8   C      8    1.9255  1.100      0.142733      1.312519      0.058016
    9   H      9    1.4430  1.100     -0.296232      2.272812      0.264397
   10   C     10    1.9255  1.100      1.478716      1.204697     -0.105751
   11   H     11    1.4430  1.100      2.121785      2.066948     -0.028537
   12   H     12    1.4430  1.100      1.878197      0.199459     -0.315502
 ------------------------------------------------------------------------------
 One-electron integrals computed using PRISM.
 NBasis=   144 RedAO= T EigKep=  5.95D-05  NBF=   144
 NBsUse=   144 1.00D-06 EigRej= -1.00D+00 NBFU=   144
 Initial guess from the checkpoint file:  "/home/usr6/a72176a/results/10-1021--ja5111392-MA_opt__B3LYP_methanol__2/10-1021--ja5111392-MA_opt_freq_B3LYP_6-31+g_d_p_scrf_solvent_methanol__2.chk"
 B after Tr=    -0.000000    0.000000   -0.000000
         Rot=    0.999829   -0.006714   -0.000550    0.017218 Ang=  -2.12 deg.
 ExpMin= 4.38D-02 ExpMax= 5.48D+03 ExpMxC= 8.25D+02 IAcc=3 IRadAn=         5 AccDes= 0.00D+00
 Harris functional with IExCor=  402 and IRadAn=       5 diagonalized for initial guess.
 HarFok:  IExCor=  402 AccDes= 0.00D+00 IRadAn=         5 IDoV= 1 UseB2=F ITyADJ=14
 ICtDFT=  3500011 ScaDFX=  1.000000  1.000000  1.000000  1.000000
 FoFCou: FMM=F IPFlag=           0 FMFlag=      100000 FMFlg1=           0
         NFxFlg=           0 DoJE=T BraDBF=F KetDBF=T FulRan=T
         wScrn=  0.000000 ICntrl=       500 IOpCl=  0 I1Cent=   200000004 NGrid=           0
         NMat0=    1 NMatS0=      1 NMatT0=    0 NMatD0=    1 NMtDS0=    0 NMtDT0=    0
 Petite list used in FoFCou.
 Keep R1 ints in memory in canonical form, NReq=89500420.
 Requested convergence on RMS density matrix=1.00D-08 within 128 cycles.
 Requested convergence on MAX density matrix=1.00D-06.
 Requested convergence on             energy=1.00D-06.
 No special actions if energy rises.
 Inv3:  Mode=1 IEnd=     3564300.
 Iteration    1 A*A^-1 deviation from unit magnitude is 3.55D-15 for    942.
 Iteration    1 A*A^-1 deviation from orthogonality  is 1.57D-15 for    833     28.
 Iteration    1 A^-1*A deviation from unit magnitude is 3.55D-15 for    942.
 Iteration    1 A^-1*A deviation from orthogonality  is 1.57D-15 for    799    199.
 Error on total polarization charges =  0.01183
 SCF Done:  E(RB3LYP) =  -306.405204249     A.U. after   11 cycles
            NFock= 11  Conv=0.68D-08     -V/T= 2.0090
 D1PCM: PCM CHGder 1st derivatives, ID1Alg=3 FixD1E=F DoIter=F DoCFld=F I1PDM=0.
 Calling FoFJK, ICntrl=      2127 FMM=F ISym2X=0 I1Cent= 0 IOpClX= 0 NMat=1 NMatS=1 NMatT=0.
 ***** Axes restored to original set *****
 -------------------------------------------------------------------
 Center     Atomic                   Forces (Hartrees/Bohr)
 Number     Number              X              Y              Z
 -------------------------------------------------------------------
      1        6           0.017970576   -0.002907589    0.012794322
      2        8          -0.022569065    0.007384683   -0.023503041
      3        8           0.007368983   -0.035733873    0.017049086
      4        6           0.001620538    0.019200934   -0.006892437
      5        1          -0.006714614   -0.001342604    0.007062590
      6        1           0.005636677    0.008042668   -0.001522259
      7        1           0.006662412    0.103420784    0.019125716
      8        6          -0.007866576    0.032337626   -0.011074312
      9        1           0.006844132   -0.001668868    0.007618654
     10        6           0.011495223   -0.022537446    0.001115255
     11        1          -0.002034567   -0.005017206   -0.002522949
     12        1          -0.018413719   -0.101179108   -0.019250624
 -------------------------------------------------------------------
 Cartesian Forces:  Max     0.103420784 RMS     0.027846519

 GradGradGradGradGradGradGradGradGradGradGradGradGradGradGradGradGradGrad
 Berny optimization.
 Using GEDIIS/GDIIS optimizer.
 FormGI is forming the generalized inverse of G from B-inverse, IUseBI=4.
 Internal  Forces:  Max     0.114666078 RMS     0.019198502
 Search for a local minimum.
 Step number   2 out of a maximum of   59
 All quantities printed in internal units (Hartrees-Bohrs-Radians)
 Mixed Optimization -- RFO/linear search
 Update second derivatives using D2CorX and points    1    2
 DE= -5.65D-02 DEPred=-6.08D-02 R= 9.30D-01
 TightC=F SS=  1.41D+00  RLast= 3.15D-01 DXNew= 5.0454D-01 9.4417D-01
 Trust test= 9.30D-01 RLast= 3.15D-01 DXMaxT set to 5.05D-01
 ITU=  1  0
 Use linear search instead of GDIIS.
 Linear search step of   0.600 exceeds DXMaxT=   0.505 but not scaled.
 Quartic linear search produced a step of  2.00000.
 Iteration  1 RMS(Cart)=  0.11065283 RMS(Int)=  0.04053016
 Iteration  2 RMS(Cart)=  0.03525518 RMS(Int)=  0.01076842
 Iteration  3 RMS(Cart)=  0.01184926 RMS(Int)=  0.00289348
 Iteration  4 RMS(Cart)=  0.00004644 RMS(Int)=  0.00289332
 Iteration  5 RMS(Cart)=  0.00000015 RMS(Int)=  0.00289332
 Variable       Old X    -DE/DX   Delta X   Delta X   Delta X     New X
                                 (Linear)    (Quad)   (Total)
    R1        2.34072  -0.03289  -0.07463   0.00000  -0.07463   2.26609
    R2        2.67300  -0.02282  -0.05862   0.00000  -0.05627   2.61672
    R3        2.88950  -0.01193  -0.04135   0.00000  -0.04089   2.84861
    R4        2.71234   0.00829   0.02006   0.00000   0.02137   2.73371
    R5        2.04050   0.00963   0.03699   0.00000   0.03699   2.07750
    R6        2.04043   0.00708   0.03684   0.00000   0.03684   2.07727
    R7        2.07381   0.00850   0.10361   0.00000   0.10410   2.17791
    R8        1.67630   0.11467   0.49000   0.00000   0.48896   2.16526
    R9        2.03306   0.00612   0.02210   0.00000   0.02210   2.05515
   R10        2.55169  -0.00368  -0.01854   0.00000  -0.02032   2.53137
   R11        2.03791   0.00577   0.03180   0.00000   0.03180   2.06971
   R12        2.08220   0.01134   0.12040   0.00000   0.11797   2.20017
    A1        2.06194  -0.01047  -0.06491   0.00000  -0.06714   1.99480
    A2        2.09275  -0.00060  -0.00329   0.00000  -0.00529   2.08746
    A3        2.12834   0.01107   0.06790   0.00000   0.07137   2.19971
    A4        1.96792   0.01890   0.11458   0.00000   0.11828   2.08620
    A5        1.91913   0.00107   0.01699   0.00000   0.01322   1.93235
    A6        1.92253   0.00272   0.02380   0.00000   0.02687   1.94941
    A7        1.84440  -0.01617  -0.13247   0.00000  -0.13349   1.71091
    A8        1.91455   0.00085   0.00783   0.00000   0.00594   1.92048
    A9        1.90589   0.00094  -0.00948   0.00000  -0.00908   1.89682
   A10        1.95619   0.01005   0.09111   0.00000   0.08797   2.04415
   A11        2.60769  -0.00934   0.00336   0.00000   0.00929   2.61698
   A12        2.05409  -0.01833  -0.08062   0.00000  -0.08006   1.97402
   A13        2.13674   0.01993   0.08469   0.00000   0.08357   2.22032
   A14        2.09236  -0.00160  -0.00408   0.00000  -0.00352   2.08884
   A15        2.11468   0.00570   0.04057   0.00000   0.04270   2.15738
   A16        2.04277  -0.01186  -0.10325   0.00000  -0.10766   1.93511
   A17        2.12572   0.00617   0.06266   0.00000   0.06484   2.19056
   A18        2.43737  -0.00896   0.01959   0.00000   0.01641   2.45377
    D1       -2.61387   0.00152   0.00824   0.00000   0.00417  -2.60970
    D2        0.54671   0.00190   0.04621   0.00000   0.03887   0.58558
    D3        0.02037   0.00476   0.04072   0.00000   0.03967   0.06003
    D4       -3.11906   0.00487   0.04506   0.00000   0.04215  -3.07691
    D5       -3.14054   0.00428   0.00209   0.00000   0.00270  -3.13785
    D6        0.00322   0.00439   0.00643   0.00000   0.00518   0.00840
    D7        1.04491  -0.00272  -0.00458   0.00000  -0.00719   1.03771
    D8       -3.12623   0.00078   0.03073   0.00000   0.02751  -3.09872
    D9       -1.00986   0.00464   0.07467   0.00000   0.06621  -0.94366
   D10        1.22835  -0.01106  -0.08677   0.00000  -0.08217   1.14618
   D11       -0.83528  -0.00397  -0.02524   0.00000  -0.02804  -0.86332
   D12       -2.96042  -0.01234  -0.08674   0.00000  -0.09181  -3.05223
   D13       -0.35706  -0.00888  -0.06151   0.00000  -0.06091  -0.41797
   D14       -3.13824   0.00194   0.00671   0.00000   0.00858  -3.12966
   D15       -0.00194   0.00399  -0.00389   0.00000  -0.00275  -0.00469
   D16        0.00557   0.00207   0.01114   0.00000   0.01129   0.01686
   D17       -3.14132   0.00412   0.00054   0.00000  -0.00004  -3.14136
   D18       -0.32459   0.00452   0.04924   0.00000   0.05218  -0.27241
   D19        2.81167   0.00658   0.03856   0.00000   0.04051   2.85218
         Item               Value     Threshold  Converged?
 Maximum Force            0.114666     0.000450     NO 
 RMS     Force            0.019199     0.000300     NO 
 Maximum Displacement     0.474635     0.001800     NO 
 RMS     Displacement     0.151420     0.001200     NO 
 Predicted change in Energy=-7.261702D-03
 GradGradGradGradGradGradGradGradGradGradGradGradGradGradGradGradGradGrad

                          Input orientation:                          
 ---------------------------------------------------------------------
 Center     Atomic      Atomic             Coordinates (Angstroms)
 Number     Number       Type             X           Y           Z
 ---------------------------------------------------------------------
      1          6           0       -1.452808    1.575582    0.336242
      2          8           0       -0.490757    1.458575    1.042474
      3          8           0       -1.705504    2.874506   -0.071637
      4          6           0       -3.067916    3.290401   -0.323770
      5          1           0       -3.683557    3.173912    0.579567
      6          1           0       -3.116218    4.328817   -0.681111
      7          1           0       -3.352630    2.462905   -1.073732
      8          6           0       -2.224558    0.349417   -0.079972
      9          1           0       -1.847060   -0.565680    0.370402
     10          6           0       -3.271828    0.295498   -0.913456
     11          1           0       -3.797369   -0.631232   -1.167486
     12          1           0       -3.545878    1.357343   -1.304519
 ---------------------------------------------------------------------
                    Distance matrix (angstroms):
                    1          2          3          4          5
     1  C    0.000000
     2  O    1.199164   0.000000
     3  O    1.384710   2.172950   0.000000
     4  C    2.446384   3.444409   1.446619   0.000000
     5  H    2.755015   3.653852   2.103903   1.099364   0.000000
     6  H    3.373758   4.254654   2.115797   1.099242   1.801385
     7  H    2.526795   3.698286   1.971454   1.152499   1.829874
     8  C    1.507420   2.344393   2.577898   3.069214   3.246758
     9  H    2.177523   2.527616   3.471356   4.103868   4.171454
    10  C    2.551313   3.593433   3.132620   3.059208   3.268625
    11  H    3.553618   4.492760   4.226935   4.077152   4.188588
    12  H    2.668458   3.853879   2.684913   2.219691   2.620812
                    6          7          8          9         10
     6  H    0.000000
     7  H    1.921372   0.000000
     8  C    4.122141   2.593634   0.000000
     9  H    5.164547   3.677580   1.087541   0.000000
    10  C    4.043002   2.174827   1.339543   2.102352   0.000000
    11  H    5.030171   3.127342   2.148975   2.484574   1.095241
    12  H    3.066415   1.145808   2.064296   3.064207   1.164281
                   11         12
    11  H    0.000000
    12  H    2.009093   0.000000
 Stoichiometry    C4H6O2
 Framework group  C1[X(C4H6O2)]
 Deg. of freedom    30
 Full point group                 C1      NOp   1
 Largest Abelian subgroup         C1      NOp   1
 Largest concise Abelian subgroup C1      NOp   1
                         Standard orientation:                         
 ---------------------------------------------------------------------
 Center     Atomic      Atomic             Coordinates (Angstroms)
 Number     Number       Type             X           Y           Z
 ---------------------------------------------------------------------
      1          6           0       -0.079593    0.756109   -0.025618
      2          8           0       -0.277017    1.934317    0.078515
      3          8           0       -1.214981    0.009598   -0.292146
      4          6           0       -1.301845   -1.352279    0.187909
      5          1           0       -1.217047   -1.384559    1.283522
      6          1           0       -2.235055   -1.837132   -0.132043
      7          1           0       -0.320755   -1.747247   -0.270041
      8          6           0        1.328102    0.225601    0.070658
      9          1           0        2.060862    0.997794    0.293204
     10          6           0        1.728845   -1.042366   -0.090717
     11          1           0        2.771113   -1.365406    0.003490
     12          1           0        0.823808   -1.737164   -0.322479
 ---------------------------------------------------------------------
 Rotational constants (GHZ):           4.2568256           3.9827301           2.1265658
 Standard basis: 6-31+G(d,p) (6D, 7F)
 There are   144 symmetry adapted cartesian basis functions of A   symmetry.
 There are   144 symmetry adapted basis functions of A   symmetry.
   144 basis functions,   234 primitive gaussians,   144 cartesian basis functions
    23 alpha electrons       23 beta electrons
       nuclear repulsion energy       228.2124302062 Hartrees.
 NAtoms=   12 NActive=   12 NUniq=   12 SFac= 1.00D+00 NAtFMM=   60 NAOKFM=F Big=F
 Integral buffers will be    131072 words long.
 Raffenetti 2 integral format.
 Two-electron integral symmetry is turned on.
 ------------------------------------------------------------------------------
 Polarizable Continuum Model (PCM)
 =================================
 Model                : PCM.
 Atomic radii         : UFF (Universal Force Field).
 Polarization charges : Total charges.
 Charge compensation  : None.
 Solution method      : On-the-fly selection.
 Cavity type          : Scaled VdW (van der Waals Surface) (Alpha=1.100).
 Cavity algorithm     : GePol (No added spheres)
                        Default sphere list used, NSphG=   12.
                        Lebedev-Laikov grids with approx.  5.0 points / Ang**2.
                        Smoothing algorithm: York/Karplus (Gamma=1.0000).
                        Polarization charges: spherical gaussians, with
                                              point-specific exponents (IZeta= 3).
                        Self-potential: point-specific (ISelfS= 7).
                        Self-field    : sphere-specific E.n sum rule (ISelfD= 2).
 1st derivatives      : Analytical E(r).r(x)/FMM algorithm (CHGder, D1EAlg=3).
                        Cavity 1st derivative terms included.
 Solvent              : Methanol, Eps=  32.613000 Eps(inf)=   1.765709
 ------------------------------------------------------------------------------
 Spheres list:
 ISph  on   Nord     Re0    Alpha      Xe            Ye            Ze
    1   C      1    1.9255  1.100     -0.079593      0.756109     -0.025618
    2   O      2    1.7500  1.100     -0.277017      1.934317      0.078515
    3   O      3    1.7500  1.100     -1.214981      0.009598     -0.292146
    4   C      4    1.9255  1.100     -1.301845     -1.352279      0.187909
    5   H      5    1.4430  1.100     -1.217047     -1.384559      1.283522
    6   H      6    1.4430  1.100     -2.235055     -1.837132     -0.132043
    7   H      7    1.4430  1.100     -0.320755     -1.747247     -0.270041
    8   C      8    1.9255  1.100      1.328102      0.225601      0.070658
    9   H      9    1.4430  1.100      2.060862      0.997794      0.293204
   10   C     10    1.9255  1.100      1.728845     -1.042366     -0.090717
   11   H     11    1.4430  1.100      2.771113     -1.365406      0.003490
   12   H     12    1.4430  1.100      0.823808     -1.737164     -0.322479
 ------------------------------------------------------------------------------
 One-electron integrals computed using PRISM.
 NBasis=   144 RedAO= T EigKep=  5.90D-05  NBF=   144
 NBsUse=   144 1.00D-06 EigRej= -1.00D+00 NBFU=   144
 Initial guess from the checkpoint file:  "/home/usr6/a72176a/results/10-1021--ja5111392-MA_opt__B3LYP_methanol__2/10-1021--ja5111392-MA_opt_freq_B3LYP_6-31+g_d_p_scrf_solvent_methanol__2.chk"
 B after Tr=     0.000000   -0.000000    0.000000
         Rot=    0.795682   -0.009131    0.006190    0.605614 Ang= -74.56 deg.
 ExpMin= 4.38D-02 ExpMax= 5.48D+03 ExpMxC= 8.25D+02 IAcc=3 IRadAn=         5 AccDes= 0.00D+00
 Harris functional with IExCor=  402 and IRadAn=       5 diagonalized for initial guess.
 HarFok:  IExCor=  402 AccDes= 0.00D+00 IRadAn=         5 IDoV= 1 UseB2=F ITyADJ=14
 ICtDFT=  3500011 ScaDFX=  1.000000  1.000000  1.000000  1.000000
 FoFCou: FMM=F IPFlag=           0 FMFlag=      100000 FMFlg1=           0
         NFxFlg=           0 DoJE=T BraDBF=F KetDBF=T FulRan=T
         wScrn=  0.000000 ICntrl=       500 IOpCl=  0 I1Cent=   200000004 NGrid=           0
         NMat0=    1 NMatS0=      1 NMatT0=    0 NMatD0=    1 NMtDS0=    0 NMtDT0=    0
 Petite list used in FoFCou.
 Keep R1 ints in memory in canonical form, NReq=89500420.
 Requested convergence on RMS density matrix=1.00D-08 within 128 cycles.
 Requested convergence on MAX density matrix=1.00D-06.
 Requested convergence on             energy=1.00D-06.
 No special actions if energy rises.
 Inv3:  Mode=1 IEnd=     3689643.
 Iteration    1 A*A^-1 deviation from unit magnitude is 3.33D-15 for    725.
 Iteration    1 A*A^-1 deviation from orthogonality  is 1.42D-15 for    880     66.
 Iteration    1 A^-1*A deviation from unit magnitude is 3.11D-15 for    725.
 Iteration    1 A^-1*A deviation from orthogonality  is 1.94D-15 for    774     82.
 Error on total polarization charges =  0.01209
 SCF Done:  E(RB3LYP) =  -306.439278736     A.U. after   12 cycles
            NFock= 12  Conv=0.41D-08     -V/T= 2.0096
 D1PCM: PCM CHGder 1st derivatives, ID1Alg=3 FixD1E=F DoIter=F DoCFld=F I1PDM=0.
 Calling FoFJK, ICntrl=      2127 FMM=F ISym2X=0 I1Cent= 0 IOpClX= 0 NMat=1 NMatS=1 NMatT=0.
 ***** Axes restored to original set *****
 -------------------------------------------------------------------
 Center     Atomic                   Forces (Hartrees/Bohr)
 Number     Number              X              Y              Z
 -------------------------------------------------------------------
      1        6          -0.017630159    0.010907844   -0.014715107
      2        8           0.030321546   -0.011428295    0.019584869
      3        8          -0.000779746   -0.000923016    0.009350480
      4        6          -0.006093281   -0.037207042   -0.020395526
      5        1           0.002333796    0.001385504   -0.002402343
      6        1           0.007080222   -0.009379733   -0.001738584
      7        1          -0.009419862    0.068639059    0.017815951
      8        6          -0.001925935    0.000910642    0.001599212
      9        1           0.002812244    0.003116764    0.002935700
     10        6          -0.000957075    0.038201671   -0.009089706
     11        1           0.003238750    0.008557924   -0.001188648
     12        1          -0.008980500   -0.072781321   -0.001756297
 -------------------------------------------------------------------
 Cartesian Forces:  Max     0.072781321 RMS     0.021291781

 GradGradGradGradGradGradGradGradGradGradGradGradGradGradGradGradGradGrad
 Berny optimization.
 Using GEDIIS/GDIIS optimizer.
 FormGI is forming the generalized inverse of G from B-inverse, IUseBI=4.
 Internal  Forces:  Max     0.036974662 RMS     0.012192683
 Search for a local minimum.
 Step number   3 out of a maximum of   59
 All quantities printed in internal units (Hartrees-Bohrs-Radians)
 Mixed Optimization -- RFO/linear search
 Update second derivatives using D2CorX and points    2    3
 ITU=  0  1  0
 Use linear search instead of GDIIS.
     Eigenvalues ---    0.00388   0.00556   0.00686   0.01357   0.01626
     Eigenvalues ---    0.01880   0.02119   0.07908   0.10243   0.10480
     Eigenvalues ---    0.10700   0.14472   0.15576   0.16001   0.16580
     Eigenvalues ---    0.18555   0.19513   0.23834   0.25393   0.28287
     Eigenvalues ---    0.36485   0.36987   0.37230   0.37230   0.37230
     Eigenvalues ---    0.39449   0.40039   0.40494   0.52685   0.83744
 RFO step:  Lambda=-2.36158335D-02 EMin= 3.87712848D-03
 Quartic linear search produced a step of -0.04000.
 Iteration  1 RMS(Cart)=  0.05488481 RMS(Int)=  0.00346897
 Iteration  2 RMS(Cart)=  0.00294554 RMS(Int)=  0.00179164
 Iteration  3 RMS(Cart)=  0.00000964 RMS(Int)=  0.00179162
 Iteration  4 RMS(Cart)=  0.00000003 RMS(Int)=  0.00179162
 Variable       Old X    -DE/DX   Delta X   Delta X   Delta X     New X
                                 (Linear)    (Quad)   (Total)
    R1        2.26609   0.03697   0.00298   0.02711   0.03010   2.29619
    R2        2.61672  -0.00655   0.00225  -0.02932  -0.02809   2.58863
    R3        2.84861  -0.00501   0.00164  -0.02690  -0.02614   2.82247
    R4        2.73371   0.00646  -0.00085   0.01870   0.01756   2.75127
    R5        2.07750  -0.00343  -0.00148  -0.00077  -0.00225   2.07525
    R6        2.07727  -0.00861  -0.00147  -0.01349  -0.01497   2.06230
    R7        2.17791  -0.03197  -0.00416  -0.05737  -0.06081   2.11710
    R8        2.16526   0.03200  -0.01956   0.17445   0.15596   2.32122
    R9        2.05515  -0.00043  -0.00088   0.00343   0.00255   2.05771
   R10        2.53137   0.00834   0.00081   0.01049   0.01125   2.54262
   R11        2.06971  -0.00852  -0.00127  -0.01429  -0.01556   2.05415
   R12        2.20017  -0.03663  -0.00472  -0.06350  -0.06726   2.13291
    A1        1.99480   0.01550   0.00269   0.04312   0.04648   2.04128
    A2        2.08746  -0.00139   0.00021  -0.00399  -0.00308   2.08437
    A3        2.19971  -0.01408  -0.00285  -0.04112  -0.04640   2.15331
    A4        2.08620  -0.00214  -0.00473   0.02455   0.02205   2.10825
    A5        1.93235  -0.00459  -0.00053  -0.01526  -0.01618   1.91617
    A6        1.94941  -0.00921  -0.00107  -0.06048  -0.06313   1.88628
    A7        1.71091   0.01929   0.00534   0.10527   0.11226   1.82317
    A8        1.92048   0.00365  -0.00024   0.00782   0.00677   1.92726
    A9        1.89682   0.00120   0.00036  -0.00189  -0.00415   1.89266
   A10        2.04415  -0.00940  -0.00352  -0.02845  -0.02972   2.01444
   A11        2.61698  -0.01128  -0.00037  -0.07786  -0.08158   2.53539
   A12        1.97402  -0.00843   0.00320  -0.05596  -0.05232   1.92170
   A13        2.22032   0.00656  -0.00334   0.04287   0.03859   2.25890
   A14        2.08884   0.00188   0.00014   0.01307   0.01369   2.10253
   A15        2.15738  -0.00484  -0.00171  -0.02252  -0.02465   2.13273
   A16        1.93511   0.01599   0.00431   0.07435   0.07955   2.01466
   A17        2.19056  -0.01115  -0.00259  -0.05189  -0.05499   2.13557
   A18        2.45377  -0.01399  -0.00066  -0.06010  -0.05975   2.39403
    D1       -2.60970  -0.00763  -0.00017  -0.10612  -0.10655  -2.71625
    D2        0.58558  -0.00840  -0.00155  -0.06258  -0.06084   0.52474
    D3        0.06003   0.00023  -0.00159   0.04710   0.04493   0.10497
    D4       -3.07691  -0.00115  -0.00169   0.05345   0.05215  -3.02476
    D5       -3.13785   0.00147  -0.00011   0.00268  -0.00051  -3.13835
    D6        0.00840   0.00009  -0.00021   0.00903   0.00671   0.01511
    D7        1.03771   0.00219   0.00029   0.05666   0.05899   1.09670
    D8       -3.09872  -0.00294  -0.00110   0.01285   0.01536  -3.08336
    D9       -0.94366  -0.00682  -0.00265   0.01374   0.01400  -0.92966
   D10        1.14618  -0.00271   0.00329  -0.09954  -0.09305   1.05313
   D11       -0.86332  -0.00651   0.00112  -0.12841  -0.12619  -0.98951
   D12       -3.05223  -0.00521   0.00367  -0.11529  -0.10942   3.12153
   D13       -0.41797  -0.00017   0.00244  -0.00570  -0.00124  -0.41922
   D14       -3.12966   0.00159  -0.00034  -0.00815  -0.01066  -3.14032
   D15       -0.00469   0.00126   0.00011  -0.01264  -0.01620  -0.02088
   D16        0.01686   0.00014  -0.00045  -0.00127  -0.00265   0.01421
   D17       -3.14136  -0.00018   0.00000  -0.00576  -0.00819   3.13364
   D18       -0.27241   0.00501  -0.00209   0.09126   0.08754  -0.18487
   D19        2.85218   0.00476  -0.00162   0.08704   0.08235   2.93452
         Item               Value     Threshold  Converged?
 Maximum Force            0.036975     0.000450     NO 
 RMS     Force            0.012193     0.000300     NO 
 Maximum Displacement     0.157444     0.001800     NO 
 RMS     Displacement     0.054872     0.001200     NO 
 Predicted change in Energy=-1.381719D-02
 GradGradGradGradGradGradGradGradGradGradGradGradGradGradGradGradGradGrad

                          Input orientation:                          
 ---------------------------------------------------------------------
 Center     Atomic      Atomic             Coordinates (Angstroms)
 Number     Number       Type             X           Y           Z
 ---------------------------------------------------------------------
      1          6           0       -1.436781    1.574784    0.373830
      2          8           0       -0.436020    1.409177    1.042783
      3          8           0       -1.714812    2.856750   -0.020805
      4          6           0       -3.076694    3.258956   -0.342021
      5          1           0       -3.711800    3.165875    0.549026
      6          1           0       -3.051839    4.294524   -0.685481
      7          1           0       -3.418364    2.508763   -1.100700
      8          6           0       -2.222601    0.387474   -0.077372
      9          1           0       -1.818628   -0.520151    0.368394
     10          6           0       -3.275319    0.326901   -0.913119
     11          1           0       -3.764030   -0.611623   -1.161956
     12          1           0       -3.629194    1.318615   -1.319576
 ---------------------------------------------------------------------
                    Distance matrix (angstroms):
                    1          2          3          4          5
     1  C    0.000000
     2  O    1.215091   0.000000
     3  O    1.369844   2.204994   0.000000
     4  C    2.457273   3.508921   1.455909   0.000000
     5  H    2.781721   3.749735   2.099577   1.098175   0.000000
     6  H    3.335796   4.260826   2.072831   1.091322   1.798167
     7  H    2.640686   3.833795   2.046791   1.120322   1.799861
     8  C    1.493587   2.343181   2.521582   3.007478   3.213970
     9  H    2.129457   2.467531   3.400840   4.045870   4.147712
    10  C    2.567815   3.613654   3.103472   2.993752   3.223067
    11  H    3.543318   4.474389   4.187019   4.015733   4.147250
    12  H    2.782071   3.973072   2.778043   2.241828   2.628853
                    6          7          8          9         10
     6  H    0.000000
     7  H    1.869676   0.000000
     8  C    4.040109   2.641386   0.000000
     9  H    5.080606   3.727158   1.088891   0.000000
    10  C    3.980427   2.194578   1.345495   2.117007   0.000000
    11  H    4.980414   3.140071   2.133195   2.476879   1.087008
    12  H    3.097007   1.228336   2.094899   3.083578   1.128686
                   11         12
    11  H    0.000000
    12  H    1.941351   0.000000
 Stoichiometry    C4H6O2
 Framework group  C1[X(C4H6O2)]
 Deg. of freedom    30
 Full point group                 C1      NOp   1
 Largest Abelian subgroup         C1      NOp   1
 Largest concise Abelian subgroup C1      NOp   1
                         Standard orientation:                         
 ---------------------------------------------------------------------
 Center     Atomic      Atomic             Coordinates (Angstroms)
 Number     Number       Type             X           Y           Z
 ---------------------------------------------------------------------
      1          6           0       -0.715289    0.312813   -0.004263
      2          8           0       -1.831591    0.789190    0.053901
      3          8           0       -0.625905   -1.031237   -0.253285
      4          6           0        0.545018   -1.790050    0.162425
      5          1           0        0.633072   -1.767934    1.256840
      6          1           0        0.425942   -2.816221   -0.189396
      7          1           0        1.411158   -1.229449   -0.274209
      8          6           0        0.472474    1.215181    0.071584
      9          1           0        0.154789    2.235175    0.282228
     10          6           0        1.776497    0.926812   -0.091894
     11          1           0        2.551965    1.683993   -0.008756
     12          1           0        2.010842   -0.157728   -0.298748
 ---------------------------------------------------------------------
 Rotational constants (GHZ):           4.2619303           4.0025921           2.1233284
 Standard basis: 6-31+G(d,p) (6D, 7F)
 There are   144 symmetry adapted cartesian basis functions of A   symmetry.
 There are   144 symmetry adapted basis functions of A   symmetry.
   144 basis functions,   234 primitive gaussians,   144 cartesian basis functions
    23 alpha electrons       23 beta electrons
       nuclear repulsion energy       228.1796540679 Hartrees.
 NAtoms=   12 NActive=   12 NUniq=   12 SFac= 1.00D+00 NAtFMM=   60 NAOKFM=F Big=F
 Integral buffers will be    131072 words long.
 Raffenetti 2 integral format.
 Two-electron integral symmetry is turned on.
 ------------------------------------------------------------------------------
 Polarizable Continuum Model (PCM)
 =================================
 Model                : PCM.
 Atomic radii         : UFF (Universal Force Field).
 Polarization charges : Total charges.
 Charge compensation  : None.
 Solution method      : On-the-fly selection.
 Cavity type          : Scaled VdW (van der Waals Surface) (Alpha=1.100).
 Cavity algorithm     : GePol (No added spheres)
                        Default sphere list used, NSphG=   12.
                        Lebedev-Laikov grids with approx.  5.0 points / Ang**2.
                        Smoothing algorithm: York/Karplus (Gamma=1.0000).
                        Polarization charges: spherical gaussians, with
                                              point-specific exponents (IZeta= 3).
                        Self-potential: point-specific (ISelfS= 7).
                        Self-field    : sphere-specific E.n sum rule (ISelfD= 2).
 1st derivatives      : Analytical E(r).r(x)/FMM algorithm (CHGder, D1EAlg=3).
                        Cavity 1st derivative terms included.
 Solvent              : Methanol, Eps=  32.613000 Eps(inf)=   1.765709
 ------------------------------------------------------------------------------
 Spheres list:
 ISph  on   Nord     Re0    Alpha      Xe            Ye            Ze
    1   C      1    1.9255  1.100     -0.715289      0.312813     -0.004263
    2   O      2    1.7500  1.100     -1.831591      0.789190      0.053901
    3   O      3    1.7500  1.100     -0.625905     -1.031237     -0.253285
    4   C      4    1.9255  1.100      0.545018     -1.790050      0.162425
    5   H      5    1.4430  1.100      0.633072     -1.767934      1.256840
    6   H      6    1.4430  1.100      0.425942     -2.816221     -0.189396
    7   H      7    1.4430  1.100      1.411158     -1.229449     -0.274209
    8   C      8    1.9255  1.100      0.472474      1.215181      0.071584
    9   H      9    1.4430  1.100      0.154789      2.235175      0.282228
   10   C     10    1.9255  1.100      1.776497      0.926812     -0.091894
   11   H     11    1.4430  1.100      2.551965      1.683993     -0.008756
   12   H     12    1.4430  1.100      2.010842     -0.157728     -0.298748
 ------------------------------------------------------------------------------
 One-electron integrals computed using PRISM.
 NBasis=   144 RedAO= T EigKep=  5.64D-05  NBF=   144
 NBsUse=   144 1.00D-06 EigRej= -1.00D+00 NBFU=   144
 Initial guess from the checkpoint file:  "/home/usr6/a72176a/results/10-1021--ja5111392-MA_opt__B3LYP_methanol__2/10-1021--ja5111392-MA_opt_freq_B3LYP_6-31+g_d_p_scrf_solvent_methanol__2.chk"
 B after Tr=    -0.000000   -0.000000   -0.000000
         Rot=    0.868753   -0.000458   -0.000562   -0.495245 Ang= -59.37 deg.
 ExpMin= 4.38D-02 ExpMax= 5.48D+03 ExpMxC= 8.25D+02 IAcc=3 IRadAn=         5 AccDes= 0.00D+00
 Harris functional with IExCor=  402 and IRadAn=       5 diagonalized for initial guess.
 HarFok:  IExCor=  402 AccDes= 0.00D+00 IRadAn=         5 IDoV= 1 UseB2=F ITyADJ=14
 ICtDFT=  3500011 ScaDFX=  1.000000  1.000000  1.000000  1.000000
 FoFCou: FMM=F IPFlag=           0 FMFlag=      100000 FMFlg1=           0
         NFxFlg=           0 DoJE=T BraDBF=F KetDBF=T FulRan=T
         wScrn=  0.000000 ICntrl=       500 IOpCl=  0 I1Cent=   200000004 NGrid=           0
         NMat0=    1 NMatS0=      1 NMatT0=    0 NMatD0=    1 NMtDS0=    0 NMtDT0=    0
 Petite list used in FoFCou.
 Keep R1 ints in memory in canonical form, NReq=89500420.
 Requested convergence on RMS density matrix=1.00D-08 within 128 cycles.
 Requested convergence on MAX density matrix=1.00D-06.
 Requested convergence on             energy=1.00D-06.
 No special actions if energy rises.
 Inv3:  Mode=1 IEnd=     3696300.
 Iteration    1 A*A^-1 deviation from unit magnitude is 3.11D-15 for    371.
 Iteration    1 A*A^-1 deviation from orthogonality  is 1.76D-15 for    845     27.
 Iteration    1 A^-1*A deviation from unit magnitude is 2.66D-15 for    371.
 Iteration    1 A^-1*A deviation from orthogonality  is 1.78D-15 for    936    188.
 Error on total polarization charges =  0.01209
 SCF Done:  E(RB3LYP) =  -306.457604172     A.U. after   12 cycles
            NFock= 12  Conv=0.23D-08     -V/T= 2.0096
 D1PCM: PCM CHGder 1st derivatives, ID1Alg=3 FixD1E=F DoIter=F DoCFld=F I1PDM=0.
 Calling FoFJK, ICntrl=      2127 FMM=F ISym2X=0 I1Cent= 0 IOpClX= 0 NMat=1 NMatS=1 NMatT=0.
 ***** Axes restored to original set *****
 -------------------------------------------------------------------
 Center     Atomic                   Forces (Hartrees/Bohr)
 Number     Number              X              Y              Z
 -------------------------------------------------------------------
      1        6          -0.005228836    0.008012650   -0.013206103
      2        8           0.008895987   -0.001628764    0.006165863
      3        8          -0.003129745   -0.001688069    0.008070126
      4        6          -0.000387222   -0.021169517   -0.006598873
      5        1           0.001819740    0.001711621   -0.002048700
      6        1           0.002663357   -0.004073356   -0.002059233
      7        1           0.000586079    0.049137507    0.011137111
      8        6          -0.004282594   -0.005139049    0.002783753
      9        1          -0.001504050    0.000452390   -0.000562301
     10        6           0.002912351    0.025384433   -0.001320215
     11        1           0.001188255    0.002638753   -0.001779062
     12        1          -0.003533323   -0.053638599   -0.000582366
 -------------------------------------------------------------------
 Cartesian Forces:  Max     0.053638599 RMS     0.014086978

 GradGradGradGradGradGradGradGradGradGradGradGradGradGradGradGradGradGrad
 Berny optimization.
 Using GEDIIS/GDIIS optimizer.
 FormGI is forming the generalized inverse of G from B-inverse, IUseBI=4.
 Internal  Forces:  Max     0.030339707 RMS     0.006798589
 Search for a local minimum.
 Step number   4 out of a maximum of   59
 All quantities printed in internal units (Hartrees-Bohrs-Radians)
 Mixed Optimization -- RFO/linear search
 Update second derivatives using D2CorX and points    3    4
 DE= -1.83D-02 DEPred=-1.38D-02 R= 1.33D+00
 TightC=F SS=  1.41D+00  RLast= 3.98D-01 DXNew= 8.4853D-01 1.1934D+00
 Trust test= 1.33D+00 RLast= 3.98D-01 DXMaxT set to 8.49D-01
 ITU=  1  0  1  0
 Use linear search instead of GDIIS.
     Eigenvalues ---    0.00385   0.00599   0.00738   0.01379   0.01646
     Eigenvalues ---    0.01831   0.02128   0.07137   0.07795   0.09982
     Eigenvalues ---    0.11324   0.12415   0.15288   0.16002   0.16201
     Eigenvalues ---    0.18659   0.19923   0.24352   0.27019   0.28436
     Eigenvalues ---    0.33126   0.36411   0.37223   0.37230   0.37233
     Eigenvalues ---    0.37405   0.40413   0.40586   0.53731   0.83194
 RFO step:  Lambda=-1.13871578D-02 EMin= 3.85204346D-03
 Quartic linear search produced a step of  1.01293.
 Iteration  1 RMS(Cart)=  0.06665278 RMS(Int)=  0.02524366
 Iteration  2 RMS(Cart)=  0.02608197 RMS(Int)=  0.00501281
 Iteration  3 RMS(Cart)=  0.00021279 RMS(Int)=  0.00500921
 Iteration  4 RMS(Cart)=  0.00000120 RMS(Int)=  0.00500921
 Iteration  5 RMS(Cart)=  0.00000001 RMS(Int)=  0.00500921
 Variable       Old X    -DE/DX   Delta X   Delta X   Delta X     New X
                                 (Linear)    (Quad)   (Total)
    R1        2.29619   0.01094   0.03049  -0.00425   0.02624   2.32243
    R2        2.58863  -0.00687  -0.02846  -0.03399  -0.06495   2.52368
    R3        2.82247   0.00076  -0.02648   0.00706  -0.02209   2.80038
    R4        2.75127  -0.00240   0.01778  -0.01385   0.00385   2.75512
    R5        2.07525  -0.00286  -0.00228  -0.00521  -0.00748   2.06777
    R6        2.06230  -0.00316  -0.01516  -0.00073  -0.01589   2.04641
    R7        2.11710  -0.01693  -0.06159  -0.03221  -0.09190   2.02520
    R8        2.32122   0.03034   0.15797   0.21376   0.37467   2.69588
    R9        2.05771  -0.00117   0.00258  -0.00202   0.00056   2.05827
   R10        2.54262  -0.00290   0.01139  -0.02057  -0.00991   2.53271
   R11        2.05415  -0.00240  -0.01576   0.00223  -0.01353   2.04062
   R12        2.13291  -0.02163  -0.06813  -0.04913  -0.11522   2.01769
    A1        2.04128   0.00098   0.04708  -0.01760   0.02133   2.06261
    A2        2.08437   0.00081  -0.00312   0.01672   0.00580   2.09017
    A3        2.15331  -0.00156  -0.04700   0.02734  -0.03380   2.11951
    A4        2.10825  -0.00022   0.02233   0.02222   0.04821   2.15646
    A5        1.91617  -0.00151  -0.01639   0.00451  -0.01420   1.90197
    A6        1.88628  -0.00338  -0.06394  -0.01704  -0.08367   1.80261
    A7        1.82317   0.00707   0.11371   0.01884   0.13631   1.95948
    A8        1.92726   0.00144   0.00686   0.00550   0.01056   1.93782
    A9        1.89266   0.00131  -0.00421   0.01451   0.00277   1.89544
   A10        2.01444  -0.00472  -0.03010  -0.02505  -0.04935   1.96509
   A11        2.53539  -0.00799  -0.08264  -0.07305  -0.16111   2.37428
   A12        1.92170   0.00147  -0.05300   0.02997  -0.02162   1.90008
   A13        2.25890  -0.00073   0.03908  -0.01341   0.02115   2.28005
   A14        2.10253  -0.00073   0.01387  -0.01701  -0.00126   2.10126
   A15        2.13273  -0.00276  -0.02497  -0.00991  -0.03559   2.09714
   A16        2.01466   0.00873   0.08058   0.03706   0.11840   2.13306
   A17        2.13557  -0.00595  -0.05570  -0.02632  -0.08264   2.05293
   A18        2.39403  -0.00573  -0.06052  -0.03619  -0.09381   2.30022
    D1       -2.71625  -0.00162  -0.10793   0.14170   0.03520  -2.68105
    D2        0.52474  -0.00437  -0.06163  -0.16957  -0.22274   0.30199
    D3        0.10497  -0.00100   0.04551  -0.17263  -0.12698  -0.02202
    D4       -3.02476  -0.00083   0.05283  -0.12852  -0.07333  -3.09809
    D5       -3.13835   0.00182  -0.00052   0.14411   0.13575  -3.00260
    D6        0.01511   0.00199   0.00680   0.18822   0.18940   0.20451
[...]
   D10        1.15612   0.00000   0.00000   0.00024   0.00024   1.15636
   D11       -0.99547   0.00000   0.00000   0.00026   0.00026  -0.99520
   D12       -3.11539  -0.00000   0.00000   0.00024   0.00024  -3.11515
   D13        0.13518  -0.00000   0.00000  -0.00036  -0.00036   0.13482
   D14        3.00953   0.00000   0.00000   0.00007   0.00007   3.00961
   D15       -0.09946  -0.00000   0.00000  -0.00001  -0.00001  -0.09947
   D16        0.02651   0.00000   0.00000   0.00001   0.00001   0.02652
   D17       -3.08249  -0.00000   0.00000  -0.00007  -0.00007  -3.08256
   D18       -0.70328   0.00000   0.00000   0.00020   0.00020  -0.70308
   D19        2.46979  -0.00000   0.00000   0.00012   0.00012   2.46991
         Item               Value     Threshold  Converged?
 Maximum Force            0.000003     0.000450     YES
 RMS     Force            0.000001     0.000300     YES
 Maximum Displacement     0.000428     0.001800     YES
 RMS     Displacement     0.000130     0.001200     YES
 Predicted change in Energy=-7.053757D-10
 Optimization completed.
    -- Stationary point found.
                           ----------------------------
                           !   Optimized Parameters   !
                           ! (Angstroms and Degrees)  !
 --------------------------                            --------------------------
 ! Name  Definition              Value          Derivative Info.                !
 --------------------------------------------------------------------------------
 ! R1    R(1,2)                  1.2233         -DE/DX =    0.0                 !
 ! R2    R(1,3)                  1.3472         -DE/DX =    0.0                 !
 ! R3    R(1,8)                  1.4905         -DE/DX =    0.0                 !
 ! R4    R(3,4)                  1.4475         -DE/DX =    0.0                 !
 ! R5    R(4,5)                  1.0901         -DE/DX =    0.0                 !
 ! R6    R(4,6)                  1.0898         -DE/DX =    0.0                 !
 ! R7    R(4,7)                  1.0915         -DE/DX =    0.0                 !
 ! R8    R(7,12)                 2.3244         -DE/DX =    0.0                 !
 ! R9    R(8,9)                  1.0866         -DE/DX =    0.0                 !
 ! R10   R(8,10)                 1.3378         -DE/DX =    0.0                 !
 ! R11   R(10,11)                1.0856         -DE/DX =    0.0                 !
 ! R12   R(10,12)                1.0849         -DE/DX =    0.0                 !
 ! A1    A(2,1,3)              117.8492         -DE/DX =    0.0                 !
 ! A2    A(2,1,8)              120.1879         -DE/DX =    0.0                 !
 ! A3    A(3,1,8)              121.9591         -DE/DX =    0.0                 !
 ! A4    A(1,3,4)              123.8458         -DE/DX =    0.0                 !
 ! A5    A(3,4,5)              111.3069         -DE/DX =    0.0                 !
 ! A6    A(3,4,6)              105.2577         -DE/DX =    0.0                 !
 ! A7    A(3,4,7)              109.9972         -DE/DX =    0.0                 !
 ! A8    A(5,4,6)              110.0815         -DE/DX =    0.0                 !
 ! A9    A(5,4,7)              110.48           -DE/DX =    0.0                 !
 ! A10   A(6,4,7)              109.5875         -DE/DX =    0.0                 !
 ! A11   A(4,7,12)             102.7284         -DE/DX =    0.0                 !
 ! A12   A(1,8,9)              112.9961         -DE/DX =    0.0                 !
 ! A13   A(1,8,10)             126.0291         -DE/DX =    0.0                 !
 ! A14   A(9,8,10)             120.4292         -DE/DX =    0.0                 !
 ! A15   A(8,10,11)            120.3148         -DE/DX =    0.0                 !
 ! A16   A(8,10,12)            123.0516         -DE/DX =    0.0                 !
 ! A17   A(11,10,12)           116.609          -DE/DX =    0.0                 !
 ! A18   A(7,12,10)            120.2699         -DE/DX =    0.0                 !
 ! D1    D(2,1,3,4)           -167.5627         -DE/DX =    0.0                 !
 ! D2    D(8,1,3,4)             13.1514         -DE/DX =    0.0                 !
 ! D3    D(2,1,8,9)             36.338          -DE/DX =    0.0                 !
 ! D4    D(2,1,8,10)          -135.1564         -DE/DX =    0.0                 !
 ! D5    D(3,1,8,9)           -144.3925         -DE/DX =    0.0                 !
 ! D6    D(3,1,8,10)            44.1131         -DE/DX =    0.0                 !
 ! D7    D(1,3,4,5)             30.2573         -DE/DX =    0.0                 !
 ! D8    D(1,3,4,6)            149.4929         -DE/DX =    0.0                 !
 ! D9    D(1,3,4,7)            -92.534          -DE/DX =    0.0                 !
 ! D10   D(3,4,7,12)            66.2405         -DE/DX =    0.0                 !
 ! D11   D(5,4,7,12)           -57.0362         -DE/DX =    0.0                 !
 ! D12   D(6,4,7,12)          -178.4985         -DE/DX =    0.0                 !
 ! D13   D(4,7,12,10)            7.7455         -DE/DX =    0.0                 !
 ! D14   D(1,8,10,11)          172.4335         -DE/DX =    0.0                 !
 ! D15   D(1,8,10,12)           -5.6987         -DE/DX =    0.0                 !
 ! D16   D(9,8,10,11)            1.5188         -DE/DX =    0.0                 !
 ! D17   D(9,8,10,12)         -176.6135         -DE/DX =    0.0                 !
 ! D18   D(8,10,12,7)          -40.2948         -DE/DX =    0.0                 !
 ! D19   D(11,10,12,7)         141.5085         -DE/DX =    0.0                 !
 --------------------------------------------------------------------------------
 GradGradGradGradGradGradGradGradGradGradGradGradGradGradGradGradGradGrad


 ----------------------------------------------------------------------

 Electric dipole moment (input orientation):
 (Debye = 10**-18 statcoulomb cm , SI units = C m)
                  (au)            (Debye)         (10**-30 SI)
   Tot        0.255146D+01      0.648516D+01      0.216322D+02
   x         -0.246922D+01     -0.627613D+01     -0.209349D+02
   y         -0.392003D-01     -0.996372D-01     -0.332354D+00
   z         -0.641366D+00     -0.163019D+01     -0.543773D+01

 Dipole polarizability, Alpha (input orientation).
 (esu units = cm**3 , SI units = C**2 m**2 J**-1)
 Alpha(0;0):
               (au)            (10**-24 esu)      (10**-40 SI)
   iso        0.700137D+02      0.103750D+02      0.115437D+02
   aniso      0.356688D+02      0.528558D+01      0.588100D+01
   xx         0.792484D+02      0.117434D+02      0.130663D+02
   yx         0.178515D+01      0.264532D+00      0.294332D+00
   yy         0.693954D+02      0.102833D+02      0.114418D+02
   zx         0.184606D+02      0.273559D+01      0.304375D+01
   zy         0.392608D+00      0.581785D-01      0.647323D-01
   zz         0.613973D+02      0.909814D+01      0.101230D+02

 ----------------------------------------------------------------------

 Dipole orientation:
     6         -1.05857659         -3.00485205          2.38696286
     8         -1.16632221         -2.57011394          0.11913282
     8         -0.67357417         -5.41241977          3.11937000
     6         -0.98696231         -6.29127111          5.69068889
     1         -2.42938751         -5.20525455          6.68234523
     1         -1.57317910         -8.25841475          5.52343360
     1          0.81161628         -6.18871740          6.69534346
     6         -1.31956721         -0.90474405          4.24557987
     1         -2.66676772          0.52750424          3.65373831
     6          0.12601134         -0.53725064          6.28670334
     1         -0.06721544          1.17658974          7.39744687
     1          1.56566662         -1.86583203          6.89117472

 Electric dipole moment (dipole orientation):
 (Debye = 10**-18 statcoulomb cm , SI units = C m)
                  (au)            (Debye)         (10**-30 SI)
   Tot        0.255146D+01      0.648516D+01      0.216322D+02
   x          0.000000D+00      0.000000D+00      0.000000D+00
   y          0.000000D+00      0.000000D+00      0.000000D+00
   z          0.255146D+01      0.648516D+01      0.216322D+02

 Dipole polarizability, Alpha (dipole orientation).
 (esu units = cm**3 , SI units = C**2 m**2 J**-1)
 Alpha(0;0):
               (au)            (10**-24 esu)      (10**-40 SI)
   iso        0.700137D+02      0.103750D+02      0.115437D+02
   aniso      0.356688D+02      0.528558D+01      0.588100D+01
   xx         0.535379D+02      0.793349D+01      0.882720D+01
   yx        -0.619884D-01     -0.918573D-02     -0.102205D-01
   yy         0.693471D+02      0.102762D+02      0.114338D+02
   zx         0.117986D+02      0.174838D+01      0.194533D+01
   zy         0.141351D+01      0.209461D+00      0.233056D+00
   zz         0.871561D+02      0.129152D+02      0.143701D+02

 ----------------------------------------------------------------------
 Unable to Open any file for archive entry.
 1\1\GINC-SCA1022\Freq\RB3LYP\6-31+G(d,p)\C4H6O2\A72176A\19-Jan-2024\0\
 \#N Geom=AllCheck Guess=TCheck SCRF=Check GenChk RB3LYP/6-31+G(d,p) Fr
 eq\\Title Card Required\\0,1\C,-1.3822253888,1.5770487024,0.2001741263
 \O,-0.2324315914,1.3661540064,0.5605554466\O,-1.7211927177,2.842462969
 8,-0.1139929559\C,-3.0852634385,3.2885084408,-0.3026838112\H,-3.778299
 2232,2.7149286892,0.3129313394\H,-3.0900145537,4.3343254023,0.00378522
 5\H,-3.3596958988,3.214772743,-1.3565796627\C,-2.3556007219,0.45245909
 68,0.1036729723\H,-2.2228406041,-0.2920285976,0.8839742632\C,-3.206156
 3627,0.2323426143,-0.9051617845\H,-3.7899379149,-0.6822272262,-0.94002
 41168\H,-3.3324250443,0.9212984888,-1.7336483016\\Version=ES64L-G16Rev
 C.01\State=1-A\HF=-306.4834701\RMSD=8.053e-09\RMSF=4.802e-06\ZeroPoint
 =0.0947216\Thermal=0.1015034\ETot=-306.3819668\HTot=-306.3810226\GTot=
 -306.4194751\Dipole=-2.4692201,-0.0392003,-0.641366\DipoleDeriv=2.1213
 526,-0.2924649,0.6368639,-0.4037731,2.2976599,-0.084132,0.65333,-0.304
 1926,0.6673171,-1.7923845,0.2787785,-0.5138386,0.0527198,-0.8914807,-0
 .0182102,-0.4444313,0.0766696,-0.6976984,-1.02232,0.3975337,-0.1674645
 ,0.7849948,-1.6702503,0.273696,-0.2470806,0.330138,-0.4701245,0.812994
 2,-0.3992246,0.0962175,-0.2200953,0.4371221,-0.0344717,0.115877,-0.060
 8609,0.3697208,-0.0510186,0.0360078,0.0051626,-0.058062,0.047712,0.098
 3462,0.0553458,0.0720947,0.0183765,0.0380628,0.0049043,-0.0375106,0.06
 04734,-0.1178881,-0.0417549,-0.0051071,-0.065105,0.0977049,-0.0208395,
 0.0886202,-0.0168076,0.0052844,0.0839921,-0.0612585,-0.0863763,0.00395
 11,-0.111219,-0.2949104,-0.0767259,0.0374431,-0.1495277,-0.2626854,-0.
 242864,-0.0573374,-0.2039687,-0.0929412,0.071996,-0.067061,-0.0993438,
 -0.0073223,0.0465583,0.0979286,-0.0287217,0.1043141,0.0780701,-0.06984
 61,0.1591386,0.1310082,0.0455825,-0.0108724,-0.1128548,0.1222305,-0.06
 74316,-0.0122781,0.0863177,-0.08748,-0.0418572,-0.1047222,-0.0004858,0
 .0014478,-0.0343351,0.0278351,0.1085612,0.1205959,-0.0420265,-0.029873
 ,-0.0055523,0.0406181,0.1241273,-0.0433939,0.0865563,0.0445106\Polar=7
 9.2484109,1.7851537,69.3953746,18.4606463,0.3926082,61.3973082\Quadrup
 ole=-4.4754584,3.2822917,1.1931667,-0.1884025,-0.7167576,-0.1425235\PG
 =C01 [X(C4H6O2)]\NImag=0\\0.84590249,-0.00806644,0.52508476,0.18236539
 ,-0.07240160,0.27711045,-0.60514495,0.05337598,-0.15469366,0.69761932,
 0.06619507,-0.09611389,0.02688033,-0.11246840,0.12380179,-0.15966368,0
 .02536578,-0.12104494,0.20613568,-0.04788104,0.09543403,-0.09940851,0.
 02293228,-0.01366723,-0.04375655,0.07712098,-0.03021130,0.38839193,-0.
 02484440,-0.25212418,0.03914906,0.07326099,-0.03405065,0.02483084,-0.1
 2305279,0.41367198,-0.00456687,0.04517324,-0.05472374,-0.02757190,0.02
 573197,0.00140442,0.06372921,-0.09043899,0.07956551,-0.01816594,0.0290
 6581,-0.00813036,0.01296007,-0.00689136,0.00417552,-0.17888801,0.02613
 474,-0.01616233,0.43667184,0.03462725,-0.01674497,0.00269449,-0.002151
 48,-0.00059045,0.00156525,0.00971966,-0.08202942,0.00766993,0.06766938
 ,0.59710233,-0.00819757,0.00048012,-0.01395256,-0.00053125,0.00272166,
 0.00705238,-0.00976706,0.00823349,-0.05676739,-0.02265456,0.00267911,0
 .59556938,0.00247548,-0.00816508,0.00269569,-0.00120331,0.00164847,-0.
 00117045,-0.03603358,-0.00693198,0.01353990,-0.14937611,-0.08683812,0.
 09372513,0.17324928,0.00104167,0.00234172,-0.00160196,0.00055461,-0.00
 060116,0.00058742,0.01175967,0.00597107,-0.00770884,-0.09562399,-0.132
 76294,0.08927272,0.09626664,0.13713837,-0.00002309,0.00092902,0.001131
 12,0.00010904,-0.00028178,-0.00028586,-0.00604183,-0.00518416,0.006038
 56,0.09905034,0.08675573,-0.14516612,-0.10413209,-0.09462909,0.1458051
 8,-0.00188022,-0.00364974,0.00432765,-0.00257729,0.00196564,-0.0019936
 5,-0.01547887,0.04427983,0.00417684,-0.04484742,-0.01820729,-0.0023494
 7,0.00256614,-0.01751573,-0.00737350,0.05972116,-0.00042726,0.00354965
 ,-0.00205965,0.00120986,-0.00087770,0.00059195,0.00789199,-0.01139085,
 0.00126545,-0.00703098,-0.30466160,-0.07613240,-0.00038154,-0.01241812
 ,-0.00557881,-0.00007887,0.32653154,-0.00144539,0.00106575,-0.00031070
 ,-0.00000096,0.00020749,-0.00006961,-0.00112052,0.00749292,0.00374106,
 0.00007573,-0.07941287,-0.07616272,-0.00057282,0.01816190,0.00706803,0
 .00414270,0.08214897,0.07221236,0.00119080,-0.00878356,-0.00169131,-0.
 00310546,0.00295632,0.00032542,-0.02253245,0.00921432,-0.03301796,-0.0
 5868670,-0.00617640,-0.05083782,0.00746950,0.00230378,0.01874518,0.001
 93750,-0.00120407,-0.00090421,0.07322041,0.00099730,0.00218334,0.00201
 172,0.00057372,-0.00102232,-0.00055592,0.00807197,-0.00027006,0.013209
 38,-0.00757298,-0.05383101,-0.02493584,0.00373545,0.00255164,0.0173101
 4,-0.00660357,0.00003212,-0.03010719,0.00076562,0.05191195,0.00069510,
 -0.00329092,0.00080765,-0.00079649,0.00085441,-0.00045814,-0.00622860,
 0.00482350,0.00343285,-0.05673022,-0.02106788,-0.30982956,-0.00387720,
 -0.00350189,-0.01441917,-0.00041172,-0.00011885,-0.00671179,0.06747274
 ,0.02329033,0.32644734,-0.11540526,-0.05564171,-0.00328146,-0.05536742
 ,-0.02868568,-0.01947627,0.01047010,0.00598950,-0.00111096,0.00087714,
 -0.00058791,0.00066589,0.00016077,0.00117640,-0.00003718,0.00005500,-0
 .00018038,0.00015386,0.00008614,0.00002844,-0.00022705,0.46507634,-0.0
 6136377,-0.16105337,0.01008117,-0.00712967,0.01154857,-0.00313693,-0.0
 1339108,-0.03380917,0.00275008,-0.00354385,-0.00219724,-0.00004705,0.0
 0060389,-0.00074116,0.00011021,-0.00000164,-0.00027503,0.00039867,0.00
 062689,0.00004504,-0.00007585,0.13175930,0.47454127,0.00629488,0.00848
 950,-0.09202698,-0.02757950,-0.00606700,0.01504771,0.00287019,0.011458
 88,0.01773387,0.00000605,-0.00032659,-0.00098339,-0.00040585,0.0001610
 5,0.00014276,-0.00073056,-0.00040570,0.00037224,0.00008698,-0.00004295
 ,-0.00000457,0.30379655,-0.12066956,0.60969834,0.00481197,-0.01303490,
 0.01409746,-0.00013804,0.00048566,-0.00113690,-0.00149145,-0.00418805,
 -0.00128686,-0.00093704,0.00058231,0.00005264,0.00016157,-0.00004156,-
 0.00005221,0.00021358,-0.00004853,0.00002438,0.00019396,-0.00013219,0.
 00006162,-0.05253834,0.01748306,-0.03104478,0.04688947,0.00386105,-0.0
 1595354,0.01710713,0.00125716,0.00167400,-0.00171390,-0.00293345,-0.00
 445513,-0.00049490,-0.00116023,0.00063886,-0.00011090,0.00010616,0.000
 03918,0.00006699,0.00014480,-0.00003099,0.00000100,0.00008467,-0.00000
 617,0.00011444,0.01672965,-0.18539122,0.14985467,-0.01380723,0.1931591
 4,-0.00384658,-0.00346273,0.00354393,0.00144153,-0.00075243,0.00040530
 ,-0.00026409,-0.00131349,-0.00001491,0.00003490,0.00004744,-0.00009205
 ,0.00000549,-0.00005161,0.00003546,-0.00004085,0.00003012,0.00004868,-
 0.00000774,-0.00000984,0.00008874,-0.02849649,0.14650468,-0.19238189,0
 .03887032,-0.15738867,0.20280905,-0.01899730,-0.01003654,-0.01738809,0
 .00202044,-0.00267216,0.00227232,-0.00076595,0.00148312,0.00116516,0.0
 0030420,0.00149057,0.00014993,0.00048339,-0.00001420,-0.00037740,0.000
 23386,0.00026806,-0.00048692,-0.00008631,0.00012372,0.00004955,-0.2482
 9379,-0.05860888,-0.23327440,0.00213099,-0.00278539,-0.00487593,0.4411
 9978,-0.01051705,0.00526631,-0.02235905,-0.00843488,-0.00280266,0.0007
 3796,0.00105841,-0.00179104,0.00217666,-0.00095596,-0.00305572,-0.0008
 5243,-0.00002990,-0.00134172,0.00022025,-0.00018642,-0.00036819,0.0001
 3687,0.00016665,-0.00060076,-0.00046991,-0.06766402,-0.11228813,-0.040
 83894,0.01413416,0.00813534,0.01737350,0.19561025,0.54440731,-0.009688
 98,-0.00641340,0.00097674,0.00557018,0.00036246,0.00290314,0.00078179,
 0.00278249,-0.00103812,0.00096137,-0.00159564,0.00091232,0.00013886,-0
 .00049737,0.00021001,-0.00017603,0.00012881,-0.00069218,-0.00019596,0.
 00043017,-0.00064984,-0.23512928,-0.03235261,-0.34866310,-0.01651884,-
 0.00607836,-0.01461270,0.29284008,-0.10117278,0.63154558,0.00755519,-0
 .00363705,-0.00822349,-0.00036307,0.00116063,0.00186904,-0.00096506,-0
 .00174780,0.00146377,-0.00068733,0.00054216,-0.00019163,0.00005731,0.0
 0017311,-0.00013353,0.00011059,0.00006627,0.00004755,0.00001857,-0.000
 03668,0.00017226,-0.00726146,-0.01761863,-0.00442836,-0.00363811,0.003
 01979,0.00407170,-0.12708408,-0.13552088,-0.00942065,0.12671812,-0.002
 72873,0.00514481,0.00339525,-0.00142748,-0.00127624,-0.00125504,0.0005
 5504,0.00062617,-0.00058480,0.00036542,-0.00045114,0.00010202,-0.00006
 513,-0.00012900,0.00019155,-0.00011596,-0.00009455,-0.00010644,0.00000
 415,0.00015083,-0.00022432,-0.00141321,-0.00021704,0.00407597,0.003040
 27,-0.00070755,-0.00237557,-0.13849001,-0.26109024,-0.00189952,0.15023
 613,0.26797076,-0.00489428,0.00554482,0.00059768,-0.00279967,-0.001942
 92,-0.00112450,0.00036737,-0.00045058,-0.00024642,-0.00003909,0.000155
 07,-0.00030711,0.00001593,-0.00014826,0.00003232,0.00008148,-0.0000607
 6,0.00017246,0.00012907,-0.00020277,0.00016048,-0.01488998,-0.02218363
 ,0.00432733,0.00343812,-0.00211041,-0.00140932,-0.00825630,0.00231668,
 -0.05264162,0.01576168,0.00083727,0.04627236,-0.00293376,0.00564095,0.
 00358941,-0.00094374,-0.00081516,-0.00112573,0.00045842,0.00040252,-0.
 00035799,0.00077530,-0.00067012,-0.00006422,-0.00001044,-0.00008039,0.
 00026627,-0.00005403,-0.00008456,0.00008660,0.00029405,0.00004918,-0.0
 0017999,0.00214077,0.01118438,-0.01559121,0.00434145,-0.00451698,-0.00
 689225,-0.05114522,0.01233962,-0.02916255,0.00553934,-0.00996051,0.011
 08566,0.04153785,0.00122530,-0.00158063,-0.00289688,0.00137957,0.00031
 071,0.00086363,0.00026732,-0.00034871,0.00125082,-0.00045600,-0.001416
 69,-0.00141050,0.00005114,-0.00004787,0.00008995,-0.00003106,0.0000037
 0,0.00001294,0.00004162,-0.00114459,-0.00033307,-0.00151037,0.00983746
 ,-0.00568933,-0.00447301,0.00289807,0.00139860,0.01363146,-0.17447050,
 0.14630574,0.00336295,-0.00992683,0.01824549,-0.01348894,0.17588586,0.
 00297107,-0.00147959,-0.00210865,0.00071699,0.00016684,0.00073606,-0.0
 0044793,-0.00138396,0.00087431,-0.00058736,0.00083593,-0.00027318,0.00
 003741,-0.00004406,-0.00059229,0.00034709,0.00019088,0.00033216,-0.000
 10439,-0.00039721,0.00113601,-0.00196762,0.01862083,-0.01326233,-0.006
 50495,0.00075290,0.00157970,-0.03181800,0.14273120,-0.21825024,-0.0009
 8832,-0.00215637,0.00416634,0.03834600,-0.15783739,0.22566212\\0.00000
 244,-0.00000496,0.00000102,-0.00000089,-0.00000819,-0.00000114,0.00000
 016,-0.00000035,0.00000556,0.00000639,-0.00000176,0.00000502,0.0000021
 0,0.00000179,0.00000326,0.00000440,0.00000140,0.00000903,0.00000188,0.
 00000709,0.00000608,-0.00000551,-0.00000427,-0.00000380,-0.00000283,-0
 .00000536,-0.00000749,-0.00000694,0.00000374,-0.00000355,-0.00000256,0
 .00000441,-0.00001010,0.00000135,0.00000645,-0.00000389\\\@
 The archive entry for this job was punched.


 ONE BIG VICE IN A MAN IS APT TO KEEP OUT MANY SMALLER ONES.

                           -- BRET HARTE
 Job cpu time:       0 days  0 hours 11 minutes 14.1 seconds.
 Elapsed time:       0 days  0 hours  0 minutes 20.4 seconds.
 File lengths (MBytes):  RWF=     55 Int=      0 D2E=      0 Chk=      7 Scr=      1
 Normal termination of Gaussian 16 at Fri Jan 19 12:41:49 2024.
